ITEM: TIMESTEP
0
ITEM: NUMBER OF ATOMS
11059
ITEM: BOX BOUNDS xy xz yz pp pp ss
0.0000000000000000e+00 1.5125380482300000e+02 6.5149623739999996e+01
0.0000000000000000e+00 7.1906616709000005e+01 0.0000000000000000e+00
-1.2848138496751545e+02 1.4008786553064962e+02 0.0000000000000000e+00
ITEM: ATOMS id type x y z c_csym c_cna 
476 1 86.4687 35.4966 -1.27587 2.46243 5 
477 1 90.2961 35.669 0.0454678 9.62738 5 
870 1 86.2066 26.2819 -0.346917 7.40342 5 
871 1 86.9365 29.8845 -2.4099 0.103426 1 
872 1 88.4145 28.068 -0.767335 3.89146 5 
873 1 88.2117 31.1069 -0.157833 7.99239 5 
874 1 90.7915 29.6907 -0.299894 12.8195 5 
875 1 86.712 32.7267 -1.81897 0.201641 1 
876 1 87.6643 33.3208 -4.39998 0.0216969 1 
877 1 89.2206 31.5852 -2.66219 0.558148 1 
878 1 88.9448 34.4811 -2.10349 0.0766466 1 
879 1 90.403 32.7385 -0.367368 3.24087 5 
880 1 91.41 33.3743 -2.92578 0.872173 5 
881 1 92.748 31.612 -1.29913 7.62171 5 
882 1 92.8581 34.209 0.171373 12.5544 5 
883 1 95.1215 33.3544 -1.49719 8.54172 5 
884 1 97.2277 31.2593 1.53277 5.45871 5 
885 1 98.2585 33.5047 0.182382 11.5438 5 
886 1 86.1161 35.0403 -6.12525 0.00474603 1 
890 1 89.8999 35.0483 -4.73474 0.0215857 1 
894 1 93.6428 34.9954 -3.26985 0.703077 5 
898 1 97.3954 35.0091 -1.90722 6.94908 5 
901 1 100.861 34.7739 -0.56595 10.188 5 
1453 1 86.5922 20.8299 -1.51389 2.34014 5 
1454 1 88.253 19.1418 -0.228783 8.65808 5 
1455 1 90.4187 20.7697 -0.277316 6.20791 5 
1456 1 86.4437 23.5833 -0.94434 6.3269 5 
1457 1 87.3421 24.2882 -3.55017 0.410256 1 
1458 1 88.8825 22.5541 -1.95167 6.04686 5 
1459 1 88.8306 25.1455 -0.706785 10.3647 5 
1460 1 91.1514 24.199 -2.07907 5.69976 5 
1461 1 92.8885 22.2255 0.177436 10.0692 5 
1462 1 91.8247 24.8813 0.482689 9.00135 5 
1463 1 94.6418 24.1893 -0.738505 7.07237 5 
1464 1 87.1466 27.0165 -2.95374 0.367199 1 
1465 1 88.0711 27.7174 -5.55383 0.0332108 1 
1466 1 89.5813 25.9633 -3.73371 0.393478 1 
1467 1 89.4088 28.8036 -3.21412 0.483223 1 
1468 1 90.9142 27.0354 -1.49939 6.84325 5 
1469 1 91.8403 27.7098 -4.10471 0.0451412 1 
1470 1 93.3413 26.0155 -2.25598 1.20198 1 
1471 1 93.1987 28.7638 -1.63194 4.76809 5 
1472 1 94.6861 26.728 0.409457 11.611 5 
1473 1 95.5768 27.7201 -2.68034 0.641154 1 
1474 1 97.1435 26.1462 -0.911572 9.28699 5 
1475 1 96.4263 28.9521 -0.288434 8.61293 5 
1476 1 99.308 27.8416 -1.38897 3.38602 5 
1477 1 103.006 27.2745 -0.337848 9.97419 5 
1478 1 86.5141 29.4374 -7.29204 0.00358923 1 
1479 1 86.3137 32.2391 -6.70505 0.00104921 1 
1480 1 87.8589 30.5204 -4.99757 0.0133584 1 
1481 1 88.7868 31.1422 -7.60683 0.00261287 1 
1482 1 90.313 29.421 -5.87613 0.012767 1 
1483 1 90.1257 32.2331 -5.27789 0.0335568 1 
1484 1 91.6241 30.4598 -3.49396 0.46279 1 
1485 1 92.5518 31.1173 -6.18662 0.020165 1 
1486 1 94.0577 29.4157 -4.45047 0.0654955 1 
1487 1 93.8316 32.25 -3.91165 0.101028 1 
1488 1 95.3286 30.5684 -2.2312 5.89899 5 
1489 1 96.3176 31.1144 -4.82417 0.021688 1 
1490 1 97.8016 29.4638 -3.03331 0.346387 1 
1491 1 97.5792 32.2687 -2.4891 6.42439 5 
1492 1 98.9296 30.6959 -0.697671 8.64356 5 
1493 1 100.093 31.0535 -3.44021 0.453922 5 
1494 1 101.769 29.2268 -2.11201 6.99702 5 
1495 1 101.555 31.8813 -0.981402 11.5485 5 
1496 1 104.005 30.8328 -2.24188 5.60855 5 
1497 1 105.624 28.9661 -0.252466 9.8907 5 
1498 1 104.56 31.5383 0.262999 9.52089 5 
1499 1 107.801 30.7762 -0.786113 6.78137 5 
1500 1 87.249 32.8589 -9.32623 0.000466581 1 
1501 1 87.0545 35.6592 -8.7467 0.000931519 1 
1502 1 88.585 33.9406 -7.02759 0.00343856 1 
1503 1 89.5265 34.5544 -9.65887 0.000488383 1 
1504 1 91.0473 32.8349 -7.93724 0.00377984 1 
1505 1 90.8521 35.6432 -7.36201 0.00192288 1 
1506 1 92.3486 33.9316 -5.63772 0.0207267 1 
1507 1 93.3161 34.5242 -8.27909 0.0017988 1 
1508 1 94.8168 32.8082 -6.5555 0.00533237 1 
1509 1 94.6089 35.5952 -5.96743 0.0178906 1 
1510 1 96.108 33.8981 -4.24686 0.0278216 1 
1511 1 97.0951 34.4787 -6.90345 0.00488652 1 
1512 1 98.595 32.7611 -5.16901 0.0238152 1 
1513 1 98.3931 35.5181 -4.62371 0.0412907 1 
1514 1 99.9042 33.7687 -2.85349 0.97286 5 
1515 1 100.903 34.4193 -5.50047 0.0227701 1 
1516 1 102.397 32.6552 -3.81903 0.191689 1 
1517 1 102.215 35.4476 -3.18275 0.470759 1 
1518 1 103.784 33.6251 -1.67879 6.74932 5 
1519 1 104.74 34.367 -4.16248 0.138237 1 
1520 1 106.266 32.5654 -2.32734 0.938009 5 
1521 1 106.082 35.2868 -1.84086 5.32654 5 
1522 1 107.664 33.472 0.156613 12.7331 5 
1523 1 108.584 34.2923 -2.62375 0.0866656 1 
1524 1 110.176 32.4694 -0.934418 5.41119 5 
1525 1 109.893 35.294 -0.369679 7.6982 5 
1526 1 112.339 34.3646 -1.20574 2.35001 5 
1527 1 116.184 34.6412 0.298204 11.4554 5 
99980 2 84.5243 1.48204 2.43664 6.5255 5 
2233 1 86.1286 11.8587 -0.55056 9.32732 5 
2234 1 86.1157 14.5688 -0.17684 10.9664 5 
2235 1 86.9607 15.2275 -2.75331 0.437679 1 
2236 1 88.6731 13.3623 -0.492462 10.5194 5 
2237 1 88.3265 16.2289 -0.556145 3.53201 5 
2238 1 90.7773 15.1727 -1.35073 6.44802 5 
2239 1 94.5851 14.9522 0.42229 10.2777 5 
2240 1 86.7636 18.0375 -2.264 0.263484 1 
2241 1 87.6749 18.6849 -4.82679 0.0817675 1 
2242 1 89.2614 16.9956 -3.00507 0.665383 5 
2243 1 89.0842 19.7702 -2.63604 1.4278 5 
2244 1 90.7877 17.8349 -0.113121 13.7523 5 
2245 1 91.5015 18.624 -3.33595 0.516761 5 
2246 1 93.0455 16.8688 -1.52645 4.96744 5 
2247 1 92.7645 19.6585 -1.15854 6.72257 5 
2248 1 95.2492 18.679 -2.0789 5.69092 5 
2249 1 96.5083 17.0897 -0.159618 8.62469 5 
2250 1 98.9965 18.8376 -0.5171 9.92599 5 
2251 1 86.14 20.4219 -6.47923 0.00788271 1 
2252 1 85.9722 23.2213 -5.86099 0.0132542 1 
2253 1 87.4975 21.4856 -4.18144 0.0364989 1 
2254 1 88.4267 22.1291 -6.79174 0.00291885 1 
2255 1 89.9894 20.4192 -5.12176 0.075463 1 
2256 1 89.7816 23.2156 -4.49887 0.0716173 1 
2257 1 91.3591 21.4894 -2.75661 0.688484 5 
2258 1 92.2274 22.1289 -5.41159 0.0284131 1 
2259 1 93.7368 20.4146 -3.74762 0.120261 1 
2260 1 93.5486 23.1955 -3.0604 0.655868 5 
2261 1 95.0562 21.4932 -1.40081 8.18436 5 
2262 1 95.997 22.1326 -4.01181 0.03338 1 
2263 1 97.4922 20.4585 -2.2493 2.88605 5 
2264 1 97.2543 23.2771 -1.69952 5.54611 5 
2265 1 98.4634 21.6873 0.217591 11.1378 5 
2266 1 99.7439 22.1712 -2.51568 0.27119 1 
2267 1 101.222 20.5383 -0.819452 3.61795 5 
2268 1 100.93 23.4071 -0.202357 8.86717 5 
2269 1 103.699 21.8928 -1.58665 7.27956 5 
2270 1 21.4868 21.6638 0.251698 9.65386 5 
2271 1 86.8928 23.8504 -8.48117 0.00113378 1 
2272 1 86.7072 26.6484 -7.88678 0.00342558 1 
2273 1 88.2471 24.9324 -6.17727 0.0309564 1 
2274 1 89.1763 25.5515 -8.79181 0.00469478 1 
2275 1 90.7082 23.8436 -7.08747 0.0110208 1 
2276 1 90.5064 26.6236 -6.43053 0.0342476 1 
2277 1 92.0347 24.9361 -4.71728 0.0601043 1 
2278 1 92.9652 25.5359 -7.38361 0.00445327 1 
2279 1 94.4796 23.8365 -5.67719 0.012911 1 
2280 1 94.266 26.6247 -5.02497 0.0313361 1 
2281 1 95.777 24.9667 -3.3459 0.154759 1 
2282 1 96.7336 25.5214 -6.00623 0.0055729 1 
2283 1 98.2433 23.8243 -4.29528 0.0344554 1 
2284 1 98.0216 26.6367 -3.68179 0.0589989 1 
2285 1 99.5169 24.998 -1.95523 3.78332 5 
2286 1 100.487 25.4535 -4.68757 0.0836523 1 
2287 1 102.031 23.7306 -2.93364 0.549618 1 
2288 1 101.792 26.4432 -2.48799 1.55042 5 
2289 1 103.587 24.5225 -0.451412 11.7725 5 
2290 1 104.323 25.3273 -3.31788 0.292018 1 
2291 1 105.956 23.5024 -1.71447 5.94553 5 
2292 1 105.756 26.2815 -1.20122 5.85337 5 
2293 1 108.224 25.2481 -1.84469 0.7399 5 
2294 1 23.627 23.4777 -0.283615 6.29188 5 
2295 1 26.0078 25.1902 -0.417994 5.27391 5 
2296 1 86.1045 28.9875 -12.2084 0.000179089 1 
2297 1 87.6397 27.2673 -10.5033 0.000559345 1 
2298 1 87.446 30.0621 -9.91059 0.000706935 1 
2299 1 88.983 28.341 -8.1918 0.00388267 1 
2300 1 89.9185 28.9593 -10.825 0.000602806 1 
2301 1 91.4429 27.2417 -9.09949 0.00335682 1 
2302 1 91.2482 30.0369 -8.51652 0.00180338 1 
2303 1 92.763 28.3223 -6.7812 0.00409372 1 
2304 1 93.7127 28.9324 -9.43349 0.00104313 1 
2305 1 95.2246 27.2235 -7.70386 0.00544845 1 
2306 1 95.0188 30.0129 -7.11713 0.00359386 1 
2307 1 96.5218 28.3181 -5.37155 0.0225246 1 
2308 1 97.4906 28.9074 -8.05485 0.00445688 1 
2309 1 98.9893 27.1928 -6.36766 0.0160636 1 
2310 1 98.7875 29.9889 -5.74763 0.030595 1 
2311 1 100.273 28.2525 -4.12946 0.253968 1 
2312 1 101.285 28.8604 -6.73968 0.0283059 1 
2313 1 102.808 27.1317 -5.03043 0.0436853 1 
2314 1 102.645 29.9237 -4.54937 0.333816 1 
2315 1 104.217 28.1091 -2.77938 0.343018 1 
2316 1 105.149 28.8018 -5.35149 0.027792 1 
2317 1 106.684 27.0331 -3.68214 0.117012 1 
2318 1 106.49 29.7931 -3.015 0.0818324 1 
2319 1 108.033 27.9581 -1.33227 5.37872 5 
2320 1 108.976 28.7437 -3.88316 0.0450005 1 
2321 1 110.508 26.9716 -2.14305 0.0788153 1 
2322 1 110.264 29.74 -1.47749 1.11949 5 
2323 1 25.6757 27.9663 0.122628 6.87252 5 
2324 1 26.6608 28.7397 -2.47786 0.0791698 1 
2325 1 28.1604 27.1022 -0.702153 2.28775 5 
2326 1 28.0152 29.8001 -0.00566547 5.46264 5 
2327 1 30.4475 28.7713 -1.00194 1.62961 5 
2328 1 34.4597 28.7003 0.0439849 11.2726 5 
2329 1 85.9096 31.7826 -11.6188 0.00019656 1 
2330 1 86.8586 32.4004 -14.2448 5.10674e-05 1 
2331 1 88.3882 30.6793 -12.5378 0.000147561 1 
2332 1 88.1936 33.4757 -11.9529 0.000132395 1 
2333 1 89.7221 31.7552 -10.24 0.00048096 1 
2334 1 90.6702 32.3706 -12.8709 0.0001181 1 
2335 1 92.1941 30.6502 -11.1557 0.000439344 1 
2336 1 91.9981 33.4459 -10.5748 0.00047059 1 
2337 1 93.5119 31.7253 -8.84878 0.00199054 1 
2338 1 94.4722 32.3392 -11.491 0.00042408 1 
2339 1 95.9853 30.6204 -9.77256 0.00100624 1 
2340 1 95.7902 33.4119 -9.19693 0.000942566 1 
2341 1 97.2964 31.6954 -7.47495 0.00270271 1 
2342 1 98.2723 32.307 -10.1132 0.000823405 1 
2343 1 99.7773 30.5871 -8.40616 0.00468745 1 
2344 1 99.5889 33.373 -7.81334 0.00380313 1 
2345 1 101.084 31.6509 -6.11844 0.0357621 1 
2346 1 102.082 32.2717 -8.73466 0.00351091 1 
2347 1 103.616 30.5497 -7.06036 0.025575 1 
2348 1 103.403 33.3217 -6.42729 0.0102906 1 
2349 1 104.961 31.5975 -4.73286 0.0657759 1 
2350 1 105.917 32.2359 -7.32351 0.005282 1 
2351 1 107.442 30.4918 -5.6154 0.0065227 1 
2352 1 107.243 33.281 -4.9669 0.0394219 1 
2353 1 108.777 31.5336 -3.30342 0.0918828 1 
2354 1 109.725 32.2022 -5.90303 0.00489473 1 
2355 1 111.227 30.4528 -4.18325 0.0312533 1 
2356 1 111.044 33.2689 -3.56669 0.0513798 1 
2357 1 112.561 31.4649 -1.94308 1.02713 5 
2358 1 113.524 32.1995 -4.48917 0.0301106 1 
2359 1 28.9372 30.4851 -2.7543 0.0955601 1 
2360 1 114.803 33.3344 -2.1579 0.523439 5 
2361 1 30.1999 31.7482 -0.540934 8.20786 5 
2362 1 31.2236 32.2051 -3.08714 0.15557 1 
2363 1 32.6961 30.5064 -1.22376 6.78289 5 
2364 1 32.6484 33.3423 -0.634479 6.748 5 
2365 1 35.0311 32.0277 -1.83542 2.88825 5 
2366 1 36.8211 30.1471 -0.446103 10.4254 5 
2367 1 38.9963 31.8375 -0.692113 5.43303 5 
2368 1 86.6652 35.1966 -13.6602 6.30635e-05 1 
2370 1 89.1446 34.0921 -14.5805 3.9753e-05 1 
2372 1 90.4768 35.1674 -12.2892 0.000133961 1 
2373 1 91.4315 35.7836 -14.9163 4.28307e-05 1 
2374 1 92.9537 34.0611 -13.2061 0.000127744 1 
2376 1 94.2793 35.1346 -10.9137 0.000387357 1 
2377 1 95.2412 35.7511 -13.5409 0.000129112 1 
2378 1 96.7588 34.0279 -11.8279 0.00030693 1 
2380 1 98.0802 35.095 -9.53527 0.00119835 1 
2381 1 99.0527 35.7164 -12.1573 0.000331075 1 
2382 1 100.569 33.9939 -10.44 0.000942571 1 
2384 1 101.896 35.054 -8.13308 0.00407083 1 
2385 1 102.871 35.6827 -10.7536 0.000973074 1 
2386 1 104.389 33.9599 -9.03513 0.00148634 1 
2388 1 105.725 35.0197 -6.71718 0.00932921 1 
2389 1 106.688 35.6532 -9.33257 0.00156942 1 
2390 1 108.204 33.929 -7.60668 0.00281976 1 
2392 1 109.523 34.9935 -5.26742 0.00838559 1 
2393 1 110.485 35.6293 -7.90951 0.00135943 1 
2394 1 112 33.9119 -6.19903 0.00149815 1 
2396 1 113.312 34.9992 -3.87114 0.0116069 1 
2397 1 114.28 35.6151 -6.50691 0.00593648 1 
2398 1 115.801 33.9102 -4.78734 0.0263212 1 
2400 1 117.169 35.0074 -2.41657 0.300718 1 
2401 1 118.061 35.5865 -5.15457 0.023832 1 
2402 1 33.457 33.8266 -3.51892 0.283178 1 
2404 1 34.9504 34.8233 -1.51227 6.98677 5 
2405 1 35.8091 35.5232 -3.9742 0.189358 1 
2406 1 37.3849 33.7067 -2.26916 0.101056 1 
2408 1 38.8124 34.6265 -0.0556391 10.2758 5 
2409 1 39.6728 35.4249 -2.62191 0.0713373 1 
2410 1 41.2161 33.6174 -0.849908 2.39478 5 
2412 1 43.4594 35.4277 -1.32023 2.68494 5 
2413 1 47.2474 35.6488 0.0342688 9.63264 5 
3216 1 86.5591 6.16469 -2.00571 7.3171 5 
3217 1 87.9597 4.20635 -0.0953004 12.728 5 
3218 1 90.4885 5.96494 -0.429821 10.8991 5 
3219 1 86.4196 9.00719 -0.868772 8.42528 5 
3220 1 87.211 9.63015 -3.76556 0.220949 1 
3221 1 88.7987 7.8382 -2.12487 3.35502 5 
3222 1 88.644 10.6647 -1.68171 6.65685 5 
3223 1 89.9561 8.67951 0.245982 12.2505 5 
3224 1 91.0935 9.58029 -2.43616 0.277825 1 
3225 1 92.6052 7.74789 -0.878314 5.47758 5 
3226 1 92.4633 10.4822 -0.0931143 8.86385 5 
3227 1 8.75105 9.64689 -1.21017 6.91089 5 
3228 1 87.0966 12.4684 -3.19228 0.416017 1 
3229 1 88.0101 13.0852 -5.85847 0.0210313 1 
3230 1 89.5435 11.356 -4.19205 0.0903006 1 
3231 1 89.3707 14.1306 -3.51316 0.347778 1 
3232 1 90.9198 12.3422 -1.86716 6.33884 5 
3233 1 91.829 13.0761 -4.46842 0.050604 1 
3234 1 93.3414 11.341 -2.84315 0.121512 1 
3235 1 93.1984 14.1293 -2.0783 0.696252 1 
3236 1 94.5813 12.3167 -0.531253 5.40296 5 
3237 1 95.6049 13.0987 -3.15912 0.083681 1 
3238 1 11.0105 11.3816 -1.52149 4.07475 5 
3239 1 96.9447 14.2523 -0.829412 7.97857 5 
3240 1 13.2706 13.1686 -1.70572 2.53105 5 
3241 1 14.803 11.5698 -0.0529026 9.81146 5 
3242 1 17.1031 13.1898 -0.221658 5.31574 5 
3243 1 86.4913 14.8053 -7.58317 0.00295715 1 
3244 1 86.3125 17.6075 -7.05184 0.00906323 1 
3245 1 87.8701 15.8875 -5.31705 0.0314087 1 
3246 1 88.7868 16.508 -7.94063 0.00301244 1 
3247 1 90.3035 14.7772 -6.1909 0.0193068 1 
3248 1 90.143 17.5888 -5.66596 0.0158378 1 
3249 1 91.6698 15.8572 -3.9225 0.052645 1 
3250 1 92.5918 16.4906 -6.55892 0.00375532 1 
3251 1 94.0967 14.7786 -4.81549 0.0345457 1 
3252 1 93.9181 17.5745 -4.26381 0.0468822 1 
3253 1 95.4365 15.8742 -2.50914 0.344638 1 
3254 1 96.3771 16.5045 -5.1528 0.0160951 1 
3255 1 97.8862 14.8256 -3.4577 0.0235222 1 
3256 1 97.7002 17.6556 -2.84044 0.114911 1 
3257 1 99.1475 15.9734 -1.13566 4.3162 5 
3258 1 100.162 16.5032 -3.7403 0.043208 1 
3259 1 15.5633 14.839 -1.93904 0.32976 1 
3260 1 101.412 17.6963 -1.39153 3.17325 5 
3261 1 16.7809 16.1277 0.316532 7.61747 5 
3262 1 17.8542 16.4089 -2.38334 0.520886 1 
3263 1 19.5292 14.557 -1.01785 7.13955 5 
3264 1 19.4355 17.2415 0.0907163 11.9687 5 
3265 1 21.794 16.181 -1.17183 5.94491 5 
3266 1 87.2575 18.2386 -9.65709 0.00120031 1 
3267 1 87.076 21.0473 -9.08039 0.00136871 1 
3268 1 88.6124 19.3209 -7.39073 0.00749152 1 
3269 1 89.5471 19.9435 -9.99272 0.00124431 1 
3270 1 91.0743 18.2157 -8.28249 0.00136495 1 
3271 1 90.8944 21.0301 -7.70982 0.00659165 1 
3272 1 92.4115 19.2957 -5.9893 0.0137206 1 
3273 1 93.3535 19.923 -8.61045 0.00128339 1 
3274 1 94.8701 18.2046 -6.89238 0.00275865 1 
3275 1 94.6842 21.0227 -6.32575 0.0133204 1 
3276 1 96.2009 19.3208 -4.61146 0.0352488 1 
3277 1 97.1507 19.9103 -7.21744 0.00509655 1 
3278 1 98.6565 18.1976 -5.48877 0.0101937 1 
3279 1 98.461 21.0183 -4.88533 0.0239217 1 
3280 1 99.9546 19.3338 -3.18195 0.0511306 1 
3281 1 100.917 19.873 -5.84698 0.0137971 1 
3282 1 102.411 18.1325 -4.12827 0.0705623 1 
3283 1 102.196 20.9272 -3.58932 0.296223 1 
3284 1 17.6096 19.1136 -1.89011 1.30874 5 
3285 1 18.6143 19.8083 -4.47945 0.063239 1 
3286 1 20.1402 18.0071 -2.78184 0.286887 1 
3287 1 20.0458 20.791 -2.25258 0.341009 1 
3288 1 21.5968 18.977 -0.685231 5.89923 5 
3289 1 22.4959 19.7253 -3.18441 0.0951099 1 
3290 1 24.0276 17.9713 -1.41867 0.716955 1 
3291 1 23.8977 20.6731 -0.821471 5.43964 5 
3292 1 26.2871 19.6952 -1.82416 0.430595 1 
3293 1 27.8653 18.0853 -0.134817 8.32646 5 
3294 1 30.0337 19.8803 -0.459291 6.46924 5 
3295 1 86.4888 23.392 -13.3907 0.000134591 1 
3296 1 88.0183 21.6689 -11.6909 0.000413304 1 
3297 1 87.8306 24.4705 -11.0973 0.00038981 1 
3298 1 89.3629 22.7521 -9.39796 0.00117546 1 
3299 1 90.3029 23.3669 -12.0165 0.000298322 1 
3300 1 91.8307 21.6464 -10.3164 0.00102551 1 
3301 1 91.6402 24.45 -9.71262 0.00147337 1 
3302 1 93.1662 22.738 -8.01511 0.00472197 1 
3303 1 94.1077 23.3434 -10.6372 0.000840508 1 
3304 1 95.6301 21.6252 -8.93385 0.00204322 1 
3305 1 95.4285 24.4292 -8.32376 0.00170457 1 
3306 1 96.9477 22.7191 -6.62241 0.00626415 1 
3307 1 97.8998 23.3151 -9.25859 0.00103313 1 
3308 1 99.4141 21.5963 -7.54607 0.003016 1 
3309 1 99.2065 24.3934 -6.95962 0.00645368 1 
3310 1 100.713 22.6766 -5.23312 0.0320397 1 
3311 1 101.689 23.2746 -7.89063 0.00324298 1 
3312 1 103.2 21.5401 -6.21375 0.0264727 1 
3313 1 102.997 24.3401 -5.61182 0.033037 1 
3314 1 104.563 22.6028 -4.0275 0.325061 1 
3315 1 105.522 23.2314 -6.5493 0.0215404 1 
3316 1 20.9526 21.4839 -4.84451 0.0357858 1 
3317 1 106.877 24.274 -4.22558 0.0599325 1 
3318 1 22.3178 22.4762 -2.51536 0.079963 1 
3319 1 23.2433 23.1822 -5.1347 0.00565973 1 
3320 1 24.7719 21.4552 -3.43831 0.0428225 1 
3321 1 24.5931 24.2343 -2.82719 0.0684109 1 
3322 1 26.0831 22.5137 -1.05631 1.14541 1 
3323 1 27.04 23.1752 -3.73836 0.0172598 1 
3324 1 28.5496 21.5053 -2.07536 0.24605 1 
3325 1 28.3943 24.2172 -1.45755 1.2268 5 
3326 1 30.0377 22.7379 0.344959 9.78793 5 
3327 1 30.8958 23.2151 -2.33189 0.14345 1 
3328 1 32.4464 21.5658 -0.600815 4.65034 5 
3329 1 32.3161 24.4557 -0.0672734 7.09182 5 
3330 1 34.7383 23.0734 -1.3161 6.39175 5 
3331 1 86.2978 26.191 -12.8001 0.000142026 1 
3333 1 88.7744 25.0872 -13.7193 0.000109169 1 
3334 1 88.5823 27.8841 -13.1274 0.00012956 1 
3335 1 90.1123 26.1653 -11.4191 0.000667275 1 
3336 1 91.0577 26.7802 -14.0472 0.000123531 1 
3337 1 92.5835 25.0612 -12.3407 0.000320326 1 
3338 1 92.3889 27.856 -11.7427 0.000489856 1 
3339 1 93.9109 26.1414 -10.0301 0.00107426 1 
3340 1 94.8619 26.7522 -12.668 0.000267231 1 
3341 1 96.3815 25.0338 -10.9623 0.000501831 1 
3342 1 96.1826 27.8287 -10.3617 0.00120241 1 
3343 1 97.6947 26.1134 -8.6596 0.00206996 1 
3344 1 98.6605 26.7221 -11.2954 0.00051268 1 
3345 1 100.177 25.0003 -9.59357 0.000744605 1 
3346 1 99.9749 27.7947 -9.00428 0.00299095 1 
3347 1 101.491 26.0703 -7.30687 0.00286548 1 
3348 1 102.468 26.6878 -9.92474 0.000611812 1 
3349 1 103.986 24.9596 -8.22645 0.00261195 1 
3350 1 103.797 27.7514 -7.63364 0.00297919 1 
3351 1 105.311 26.0058 -5.93026 0.0165516 1 
3352 1 106.289 26.6486 -8.53663 0.0014203 1 
3353 1 107.82 24.9196 -6.83153 0.00351935 1 
3354 1 107.638 27.7048 -6.23471 0.0118272 1 
3355 1 109.163 25.9623 -4.49568 0.0275995 1 
3356 1 110.111 26.6163 -7.12825 0.0024776 1 
3357 1 25.5338 24.8965 -5.43071 0.00409931 1 
3358 1 25.3342 27.6742 -4.79234 0.00698996 1 
3359 1 26.8633 25.9688 -3.08084 0.0537724 1 
3360 1 27.8119 26.6073 -5.71854 0.00310371 1 
3361 1 29.3424 24.9072 -4.01258 0.0356497 1 
3362 1 29.1361 27.6881 -3.36683 0.0138078 1 
3363 1 30.6443 26.0146 -1.62204 0.822634 5 
3364 1 31.592 26.5992 -4.33559 0.0259688 1 
3365 1 33.1465 24.903 -2.71952 0.178974 1 
3366 1 32.9378 27.6507 -2.00895 0.344646 1 
3367 1 34.6574 25.9749 -0.290365 8.7995 5 
3368 1 35.401 26.4825 -3.11319 0.31996 1 
3369 1 37.01 24.6578 -1.40966 2.11857 5 
3370 1 36.9235 27.3797 -1.06582 6.34461 5 
3371 1 39.3634 26.3553 -1.82069 0.0743705 1 
3372 1 40.9237 24.5163 -0.219835 5.392 5 
3373 1 43.1506 26.269 -0.353773 7.40232 5 
3374 1 87.0525 29.6048 -14.833 4.21571e-05 1 
3378 1 90.8644 29.5753 -13.4565 0.000132427 1 
3380 1 93.3398 28.4715 -14.3767 0.000105308 1 
3381 1 93.1467 31.2661 -13.7891 0.00011721 1 
3382 1 94.6671 29.5459 -12.0757 0.000337268 1 
3383 1 95.6239 30.1625 -14.7082 9.21965e-05 1 
3384 1 97.1433 28.4422 -12.9993 0.000248802 1 
3385 1 96.9503 31.2354 -12.41 0.00030022 1 
3386 1 98.4638 29.5159 -10.7005 0.000977385 1 
3387 1 99.431 30.1328 -13.3297 0.000198271 1 
3388 1 100.949 28.4114 -11.6265 0.000444871 1 
3389 1 100.757 31.2044 -11.0321 0.000717677 1 
3390 1 102.275 29.4817 -9.33748 0.00279118 1 
3391 1 103.245 30.1028 -11.9477 0.000398941 1 
3392 1 104.767 28.3779 -10.2424 0.000531636 1 
3393 1 104.58 31.1732 -9.64512 0.00223325 1 
3394 1 106.106 29.4419 -7.94044 0.00324134 1 
3395 1 107.062 30.0713 -10.5502 0.000682235 1 
3396 1 108.586 28.3445 -8.84206 0.00120342 1 
3397 1 108.396 31.138 -8.22931 0.00101971 1 
3398 1 109.919 29.4056 -6.51559 0.00213571 1 
3399 1 110.87 30.0427 -9.14242 0.000838923 1 
3400 1 26.2872 28.3209 -7.42878 0.00138708 1 
3401 1 112.198 31.1139 -6.81126 0.00320774 1 
3402 1 27.6158 29.3974 -5.09896 0.00477353 1 
3403 1 28.5632 30.0212 -7.74154 0.00250312 1 
3404 1 30.0855 28.3111 -6.02289 0.0136878 1 
3405 1 29.8904 31.1006 -5.40097 0.0172974 1 
3406 1 31.4143 29.3958 -3.64942 0.109509 1 
3407 1 32.3425 29.9877 -6.38312 0.0114348 1 
3408 1 33.8577 28.2555 -4.7274 0.0402322 1 
3409 1 33.6503 31.0421 -4.07875 0.122038 1 
3410 1 35.2253 29.295 -2.55262 0.384269 1 
3411 1 36.1633 29.9328 -5.13904 0.0371636 1 
3412 1 37.7525 28.1995 -3.50296 0.144362 1 
3413 1 37.5643 30.9623 -2.93964 0.251299 1 
3414 1 39.1944 29.0978 -1.17748 2.07277 5 
3415 1 40.0629 29.8632 -3.77231 0.0415762 1 
3416 1 41.6495 28.0931 -2.13494 0.087972 1 
3417 1 41.4532 30.8607 -1.46797 0.1125 1 
3418 1 43.8828 29.8568 -2.41982 0.0973609 1 
3419 1 45.365 28.0505 -0.773199 3.86709 5 
3420 1 45.1683 31.0715 -0.176008 7.86143 5 
3421 1 47.7451 29.6775 -0.30086 12.8919 5 
3432 1 95.4321 32.9564 -14.1223 0.000113437 1 
3435 1 97.7222 34.6469 -14.453 0.000103898 1 
3436 1 99.2413 32.9253 -12.7403 0.000258079 1 
3438 1 101.724 31.824 -13.6535 0.000177916 1 
3439 1 101.537 34.6155 -13.0617 0.000288794 1 
3440 1 103.056 32.8947 -11.3489 0.000613322 1 
3441 1 104.017 33.515 -13.9706 0.000226805 1 
3442 1 105.539 31.7945 -12.2591 0.000405398 1 
3443 1 105.352 34.5852 -11.6564 0.000560885 1 
3444 1 106.874 32.8642 -9.94059 0.000871037 1 
3445 1 107.827 33.4856 -12.569 0.000354873 1 
3446 1 109.348 31.7648 -10.8554 0.000416891 1 
3447 1 109.159 34.5565 -10.2435 0.000756359 1 
3448 1 110.678 32.8364 -8.52949 0.000719811 1 
3449 1 111.629 33.4574 -11.1689 0.000493625 1 
3450 1 113.148 31.7389 -9.45397 0.00113017 1 
3451 1 112.955 34.5327 -8.8409 0.00139427 1 
3452 1 114.475 32.8172 -7.12412 0.00408026 1 
3453 1 115.419 33.4296 -9.78656 0.00057562 1 
3454 1 30.8292 31.7095 -8.08218 0.00202526 1 
3455 1 116.74 34.5067 -7.46979 0.00220579 1 
3456 1 32.1476 32.7822 -5.78517 0.00981655 1 
3457 1 33.1054 33.3936 -8.44411 0.00120147 1 
3458 1 34.6221 31.6658 -6.75337 0.0109835 1 
3459 1 34.4279 34.4569 -6.16908 0.0163099 1 
3460 1 35.9561 32.7206 -4.48097 0.0811362 1 
3461 1 36.92 33.3486 -7.12734 0.00644815 1 
3462 1 38.4822 31.6158 -5.48051 0.0214592 1 
3463 1 38.2879 34.3972 -4.8745 0.0137939 1 
3464 1 39.8692 32.6473 -3.20304 0.0571181 1 
3465 1 40.7777 33.3087 -5.80273 0.0030499 1 
3466 1 42.3316 31.5719 -4.10219 0.0120032 1 
3467 1 42.1174 34.3655 -3.52129 0.0317931 1 
3468 1 43.6641 32.6783 -1.83407 0.194979 1 
3469 1 44.612 33.2975 -4.40749 0.0192416 1 
3470 1 46.175 31.5619 -2.67434 0.579029 1 
3471 1 45.9137 34.4445 -2.11947 0.0727852 1 
3472 1 47.3569 32.7189 -0.37134 3.15529 5 
3473 1 48.3659 33.3572 -2.93393 0.871196 5 
3474 1 49.6994 31.5988 -1.30477 7.65028 5 
3475 1 49.8107 34.1982 0.169226 12.4781 5 
3476 1 52.0692 33.3461 -1.50413 8.5438 5 
3477 1 54.1739 31.2557 1.53151 5.44917 5 
3478 1 55.1994 33.501 0.180366 11.5232 5 
3499 1 106.307 35.2053 -14.2862 0.000262758 1 
3503 1 110.11 35.1758 -12.8854 0.000368451 1 
3507 1 113.904 35.1474 -11.4972 0.000350568 1 
3511 1 117.693 35.1166 -10.1356 0.000690859 1 
3515 1 35.3927 35.0799 -8.80817 0.00149988 1 
3519 1 39.224 35.0407 -7.48582 0.00187142 1 
3523 1 43.0608 35.0204 -6.12339 0.00357076 1 
3527 1 46.852 35.0329 -4.74139 0.0235016 1 
3531 1 50.5932 34.9855 -3.27982 0.716266 5 
3535 1 54.3399 35.0026 -1.91303 6.95989 5 
3538 1 57.7993 34.768 -0.568473 10.1952 5 
99693 2 86.107 29.1465 5.71868 0.0490779 1 
4388 1 0.748164 0.61387 -3.06135 0.237642 1 
4389 1 2.30801 1.47659 -0.892033 10.9022 5 
4390 1 4.69169 0.436432 -1.67677 2.65384 5 
4391 1 8.47218 0.41519 -0.315462 5.47559 5 
4392 1 86.6534 3.36807 -2.37956 6.38635 5 
4393 1 87.5848 4.06937 -4.98248 0.0589107 1 
4394 1 3.06508 2.29787 -3.4153 0.158395 1 
4395 1 89.0101 5.07311 -2.73249 0.204961 1 
4396 1 4.47703 3.19891 -1.19112 5.52842 5 
4397 1 5.36266 3.99152 -3.71381 0.0534263 1 
4398 1 6.94251 2.21296 -1.95999 0.165426 1 
4399 1 6.73633 4.96796 -1.40733 5.23728 5 
4400 1 9.16465 4.01874 -2.35043 0.150171 1 
4401 1 10.6694 2.4168 -0.652165 7.19937 5 
4402 1 10.3407 5.21493 0.0441325 8.28065 5 
4403 1 12.8893 4.10304 -0.957713 3.14495 5 
4404 1 86.053 5.79905 -6.66296 0.0170104 1 
4405 1 85.8748 8.60042 -6.06764 0.0244228 1 
4406 1 87.432 6.87336 -4.46338 0.191614 1 
4407 1 88.3674 7.49585 -7.04093 0.00904811 1 
4408 1 89.9029 5.74908 -5.36567 0.0129195 1 
4409 1 89.7146 8.55763 -4.73516 0.0392245 1 
4410 1 91.2649 6.7827 -3.10478 0.0626158 1 
4411 1 92.1789 7.46237 -5.72774 0.012009 1 
4412 1 7.60882 5.72264 -4.05214 0.0382805 1 
4413 1 93.5125 8.5449 -3.488 0.0769859 1 
4414 1 8.95865 6.78679 -1.88339 3.54999 5 
4415 1 9.90227 7.48671 -4.38902 0.0365 1 
4416 1 11.42 5.80286 -2.66467 0.0635688 1 
4417 1 11.1906 8.61182 -2.04537 1.93027 5 
4418 1 12.7108 6.9966 -0.42717 9.36305 5 
4419 1 13.6971 7.53377 -2.98233 0.0792673 1 
4420 1 15.1243 5.86149 -1.17215 1.99219 5 
4421 1 14.9562 8.66783 -0.62241 5.35695 5 
4422 1 17.4145 7.42926 -1.55746 0.37179 1 
4423 1 19.0605 5.68024 0.278464 8.10495 5 
4424 1 21.4236 7.15176 -0.548812 6.29591 5 
4425 1 86.8388 9.21898 -8.71728 0.00179605 1 
4426 1 86.6602 12.0075 -8.12909 0.00553002 1 
4427 1 88.1726 10.2822 -6.42529 0.0121031 1 
4428 1 89.132 10.9158 -9.07389 0.00144711 1 
4429 1 90.6517 9.19429 -7.3868 0.00259675 1 
4430 1 90.4803 11.9935 -6.79196 0.00585267 1 
4431 1 91.9918 10.268 -5.10756 0.0174414 1 
4432 1 92.9448 10.9006 -7.73745 0.00191827 1 
4433 1 8.36648 9.18715 -6.06965 0.00772095 1 
4434 1 94.2796 11.9902 -5.45331 0.00931183 1 
4435 1 9.69523 10.2851 -3.79103 0.0201057 1 
4436 1 10.6608 10.9024 -6.37419 0.00409795 1 
4437 1 12.1782 9.20748 -4.65667 0.0117149 1 
4438 1 11.984 12.0202 -4.06333 0.0198369 1 
4439 1 13.4899 10.3572 -2.32556 0.0718733 1 
4440 1 14.4568 10.8948 -4.95865 0.0101719 1 
4441 1 15.9706 9.20192 -3.21976 0.0791688 1 
4442 1 15.7785 12.0154 -2.64191 0.0954917 1 
4443 1 17.2658 10.3406 -0.791432 4.17345 5 
4444 1 18.2146 10.8087 -3.60789 0.115413 1 
4445 1 19.7789 9.05445 -1.99056 0.320333 1 
4446 1 19.5882 11.7704 -1.40318 3.04085 5 
4447 1 22.0957 10.6834 -2.33042 0.136943 1 
4448 1 23.7369 8.8308 -0.683926 6.05914 5 
4449 1 23.5154 11.6315 -0.158916 5.69721 5 
4450 1 25.9798 10.6672 -0.877296 0.713198 1 
4451 1 86.0983 14.3624 -12.4986 0.00029882 1 
4452 1 87.6155 12.6367 -10.781 0.00100491 1 
4453 1 87.4375 15.434 -10.2169 0.000578623 1 
4454 1 88.958 13.7097 -8.49696 0.00214115 1 
4455 1 89.9074 14.3369 -11.1345 0.000468003 1 
4456 1 91.4265 12.6172 -9.42845 0.000821646 1 
4457 1 91.2475 15.4112 -8.84321 0.00207435 1 
4458 1 92.7639 13.6973 -7.13134 0.0042219 1 
4459 1 93.7171 14.3188 -9.76702 0.000647085 1 
4460 1 95.2375 12.607 -8.06888 0.00112358 1 
4461 1 95.052 15.4028 -7.46472 0.0035333 1 
4462 1 96.5685 13.7044 -5.76889 0.00510769 1 
4463 1 97.5252 14.3054 -8.39113 0.000938988 1 
4464 1 12.9447 12.6009 -6.67607 0.00500441 1 
4465 1 98.8511 15.3987 -6.07687 0.0047579 1 
4466 1 14.2607 13.7066 -4.33374 0.0299507 1 
4467 1 15.2148 14.2799 -7.00366 0.00404433 1 
4468 1 16.7214 12.5603 -5.31007 0.011475 1 
4469 1 16.5212 15.3561 -4.67719 0.0393058 1 
4470 1 18.0177 13.6057 -3.0365 0.280421 1 
4471 1 19.0041 14.2186 -5.67585 0.0197153 1 
4472 1 20.5347 12.4813 -3.96824 0.057738 1 
4473 1 20.3712 15.2758 -3.47875 0.254279 1 
4474 1 21.9527 13.4477 -1.70149 0.353523 1 
4475 1 22.8534 14.1437 -4.33648 0.0196907 1 
4476 1 24.4279 12.3902 -2.65693 0.0604607 1 
4477 1 24.2172 15.1319 -2.09568 0.228509 1 
4478 1 25.8438 13.3937 -0.272489 4.99918 5 
4479 1 26.6916 14.1074 -2.9598 0.103438 1 
4480 1 28.2633 12.3968 -1.17342 1.62739 5 
4481 1 27.9663 15.3103 -0.838301 6.30665 5 
4482 1 30.53 14.1735 -1.33305 2.08594 5 
4483 1 32.4731 12.4927 -0.0270582 10.1946 5 
4484 1 34.4654 14.2929 -0.0139266 6.60533 5 
4485 1 85.9147 17.1634 -11.9323 0.000330779 1 
4486 1 86.8648 17.7883 -14.5572 0.000103332 1 
4487 1 88.3872 16.0615 -12.847 0.000174522 1 
4488 1 88.2035 18.8639 -12.2736 0.000293315 1 
4489 1 89.7282 17.1365 -10.5638 0.000471611 1 
4490 1 90.676 17.7609 -13.1881 0.000128743 1 
4491 1 92.1974 16.0371 -11.4769 0.000296736 1 
4492 1 92.0157 18.8392 -10.901 0.000404288 1 
4493 1 93.5367 17.1164 -9.18701 0.000805462 1 
4494 1 94.4852 17.7365 -11.8137 0.000181801 1 
4495 1 96.0047 16.0173 -10.1007 0.000470554 1 
4496 1 95.8196 18.8186 -9.51788 0.000501078 1 
4497 1 97.334 17.1023 -7.79746 0.00154271 1 
4498 1 98.2875 17.7114 -10.435 0.000280255 1 
4499 1 99.8046 15.9937 -8.72174 0.00071325 1 
4500 1 99.6106 18.7912 -8.13659 0.00136917 1 
4501 1 101.121 17.071 -6.41662 0.00528785 1 
4502 1 102.086 17.6784 -9.06095 0.000594795 1 
4503 1 17.4915 15.9527 -7.35186 0.00442649 1 
4504 1 17.2994 18.7472 -6.76843 0.00272961 1 
4505 1 18.8061 17.0164 -5.07326 0.0276632 1 
4506 1 19.7851 17.6358 -7.70328 0.00193389 1 
4507 1 21.3193 15.9027 -6.03008 0.0119624 1 
4508 1 21.1095 18.6866 -5.41669 0.0180168 1 
4509 1 22.6676 16.9483 -3.73596 0.0476084 1 
4510 1 23.6102 17.5932 -6.35281 0.00220372 1 
4511 1 25.1463 15.849 -4.68126 0.0217618 1 
4512 1 24.9476 18.6515 -4.07904 0.01881 1 
4513 1 26.4616 16.9472 -2.44963 0.16286 1 
4514 1 27.4441 17.5752 -4.99818 0.0140735 1 
4515 1 29.0004 15.8689 -3.28407 0.130236 1 
4516 1 28.7737 18.6718 -2.71405 0.0522589 1 
4517 1 30.3091 16.9788 -0.926965 2.24397 5 
4518 1 31.2642 17.6011 -3.52903 0.0830258 1 
4519 1 32.8074 15.9307 -1.80507 0.221405 1 
4520 1 32.5135 18.7989 -1.16332 0.927035 5 
4521 1 34.9662 17.6489 -2.30443 1.08509 1 
4522 1 36.4135 16.0765 -0.757121 8.06331 5 
4523 1 36.6488 18.6388 0.473437 9.16892 5 
4524 1 38.9028 17.3769 -0.832061 2.504 5 
4525 1 86.6775 20.5904 -13.9771 0.000120354 1 
4527 1 89.1522 19.4861 -14.8953 8.43216e-05 1 
4528 1 88.9643 22.2875 -14.3101 0.000109298 1 
4529 1 90.4908 20.5639 -12.6074 0.00027969 1 