ITEM: TIMESTEP
0
ITEM: NUMBER OF ATOMS
2553
ITEM: BOX BOUNDS xy xz yz pp pp ss
0.0000000000000000e+00 4.4255476070000000e+01 9.4160587380000003e+00
0.0000000000000000e+00 4.1022040879000002e+01 0.0000000000000000e+00
-8.8103084334489296e+01 8.5108542518524246e+01 0.0000000000000000e+00
ITEM: ATOMS id type x y z c_csym c_cna 
1 1 2.87833 0.241887 -9.20983 0.000742287 1 
2 1 6.64826 0.19973 -7.72125 0.00584399 1 
3 1 10.4293 0.117113 -6.25283 0.0503376 1 
4 1 23.5994 41.0167 -4.71203 0.0393609 1 
5 1 27.2772 40.9149 -3.33361 0.167729 1 
6 1 1.43985 1.35382 -5.60574 0.0244988 1 
7 1 4.04787 0.786981 -6.65087 0.00942076 1 
8 1 5.23371 1.38362 -4.07464 0.301742 1 
9 1 7.84121 0.738226 -5.15098 0.363668 1 
10 1 9.20459 0.890662 -2.21549 6.97806 5 
11 1 11.6123 0.567377 -3.65467 1.33202 5 
13 1 15.2936 0.538442 -2.09888 3.63818 5 
15 1 9.8582 40.9128 -3.33383 0.167522 1 
16 1 2.60535 1.91614 -3.08076 3.75914 5 
31 1 26.4255 0.435196 -13.6711 0.000116523 1 
32 1 30.1922 0.365676 -12.1827 0.000143321 1 
33 1 33.9551 0.297687 -10.6972 0.000276825 1 
41 1 13.713 1.74908 -14.5054 2.76105e-05 1 
43 1 17.4785 1.68505 -13.0188 4.64133e-05 1 
44 1 20.0687 1.09323 -14.0876 3.92482e-05 1 
45 1 21.2447 1.6266 -11.5293 0.000238419 1 
46 1 23.8347 1.03208 -12.6007 0.000143704 1 
47 1 25.0122 1.56494 -10.0414 0.000648926 1 
48 1 27.6042 0.965013 -11.1114 0.000614919 1 
49 1 28.7859 1.48879 -8.54341 0.00645592 1 
50 1 31.3653 0.888219 -9.62229 0.000990865 1 
51 1 32.5276 1.40632 -7.07356 0.0122276 1 
52 1 0.283846 0.825399 -8.14655 0.00254802 1 
56 1 2.6491 1.09247 -14.0873 3.96425e-05 1 
58 1 4.7685 3.00602 -13.8512 6.10273e-05 1 
59 1 7.35776 2.411 -14.9217 4.76639e-05 1 
60 1 6.41468 1.03145 -12.6005 0.000144472 1 
61 1 9.0052 0.434907 -13.6709 0.000114529 1 
62 1 8.53573 2.9409 -12.3603 0.000223278 1 
63 1 11.124 2.34431 -13.4334 8.66118e-05 1 
64 1 10.1839 0.965026 -11.1112 0.000604578 1 
65 1 12.7718 0.366106 -12.1826 0.000136202 1 
66 1 12.3 2.87022 -10.8707 0.000454272 1 
67 1 14.8879 2.27665 -11.9467 0.00010501 1 
68 1 13.9451 0.889126 -9.62214 0.000977405 1 
69 1 16.5348 0.298809 -10.6973 0.000268918 1 
70 1 16.0603 2.80432 -9.3882 0.000921622 1 
71 1 18.6534 2.21568 -10.4628 0.000372636 1 
72 1 17.7031 0.826944 -8.14644 0.00255931 1 
73 1 20.2977 0.243158 -9.2102 0.000720953 1 
74 1 19.829 2.74683 -7.90695 0.00389095 1 
75 1 22.4207 2.16324 -8.96749 0.00148478 1 
76 1 21.4672 0.788099 -6.65118 0.00933231 1 
77 1 24.0681 0.200345 -7.72177 0.00582596 1 
78 1 23.5993 2.69363 -6.39902 0.0300377 1 
79 1 26.193 2.09195 -7.47608 0.0143647 1 
80 1 25.2609 0.738044 -5.15135 0.362139 1 
81 1 27.8495 0.116535 -6.25303 0.050429 1 
82 1 27.358 2.55078 -4.83821 0.244497 1 
83 1 29.9608 1.99088 -5.94766 0.0242015 1 
84 1 29.0322 0.566026 -3.65421 1.32559 5 
85 1 41.0194 41.0149 -4.71239 0.038854 1 
86 1 31.1726 2.50248 -3.36757 0.219225 1 
87 1 33.6783 1.91099 -4.56737 0.156 1 
88 1 32.7138 0.535637 -2.09997 3.63642 5 
89 1 34.8965 2.35761 -2.13506 8.10134 5 
90 1 2.17918 3.5992 -12.7819 0.000178947 1 
91 1 1.23385 2.21468 -10.4629 0.000374949 1 
92 1 3.8249 1.62573 -11.5292 0.0002406 1 
93 1 3.35915 4.13215 -10.2181 0.00199902 1 
94 1 5.94644 3.5372 -11.2891 0.000254623 1 
95 1 5.00095 2.1624 -8.96741 0.00148153 1 
96 1 7.59212 1.56451 -10.0412 0.000647535 1 
97 1 7.12453 4.06435 -8.71984 0.00202612 1 
98 1 9.71529 3.46641 -9.79142 0.00249275 1 
99 1 8.77302 2.09208 -7.47597 0.0143496 1 
100 1 11.3658 1.48935 -8.54315 0.00643359 1 
101 1 10.8874 3.96552 -7.19272 0.0166032 1 
102 1 13.4686 3.39062 -8.30285 0.00325826 1 
103 1 12.541 1.99227 -5.94734 0.0243397 1 
104 1 15.1076 1.40784 -7.07323 0.0122511 1 
105 1 14.6387 3.91505 -5.74972 0.0244249 1 
106 1 17.2384 3.33834 -6.82723 0.021202 1 
107 1 16.2583 1.91321 -4.56685 0.15704 1 
108 1 18.859 1.35594 -5.60534 0.0248904 1 
109 1 18.4261 3.91505 -4.24611 5.33779 5 
110 1 21.0039 3.26699 -5.342 0.110298 1 
111 1 20.0246 1.91745 -3.08053 3.76476 5 
112 1 22.6529 1.3843 -4.07488 0.30145 1 
113 1 22.0912 3.77973 -2.58081 6.93586 5 
114 1 24.8103 3.14531 -3.76321 0.332586 1 
116 1 26.6233 0.89049 -2.21624 6.9675 5 
118 1 28.5764 2.97398 -2.29419 0.504663 1 
120 1 35.599 4.71656 -9.16709 0.00353081 1 
121 1 2.40945 2.74559 -7.9071 0.00388017 1 
122 1 1.93228 5.24347 -6.63994 0.0612462 1 
123 1 4.54103 4.66788 -7.63516 0.0297426 1 
124 1 3.5846 3.26603 -5.34207 0.109597 1 
125 1 6.17962 2.69335 -6.39892 0.0299514 1 
126 1 5.75598 5.12841 -5.00367 0.254223 1 
127 1 8.30734 4.56408 -6.13468 0.0190054 1 
128 1 7.39067 3.14594 -3.76324 0.334169 1 
129 1 9.93817 2.55171 -4.83833 0.246212 1 
130 1 9.4418 5.02452 -3.54211 0.101225 1 
131 1 12.0615 4.4629 -4.60929 0.0392111 1 
132 1 11.1568 2.97579 -2.295 0.508651 1 
133 1 13.7529 2.50475 -3.36692 0.221818 1 
134 1 13.3109 4.98554 -2.05739 0.410518 1 
135 1 15.8641 4.44926 -3.24735 0.443714 1 
136 1 17.4764 2.36031 -2.13471 8.10567 5 
820 1 19.8063 10.5898 -1.75574 9.13483 5 
141 1 1.00648 3.91138 -4.24812 5.33223 5 
142 1 35.3753 6.50041 -3.01108 6.73941 5 
143 1 3.17452 5.73524 -4.20787 5.79772 5 
3629 1 24.8582 26.1186 -1.60739 11.5003 5 
145 1 4.67237 3.77895 -2.58063 6.93813 5 
147 1 6.8122 5.65196 -2.3887 2.65316 5 
270 1 24.7779 2.41142 -14.9218 4.85907e-05 1 
272 1 26.8967 4.32115 -14.6856 4.74455e-05 1 
274 1 28.5442 2.34435 -13.4334 9.03785e-05 1 
275 1 31.1332 1.74881 -14.5053 2.95391e-05 1 
276 1 30.6606 4.25352 -13.1989 8.45454e-05 1 
277 1 33.2506 3.66063 -14.2719 3.51557e-05 1 
278 1 32.308 2.27608 -11.9467 0.000107029 1 
279 1 34.8985 1.68433 -13.0187 4.68782e-05 1 
280 1 34.425 4.18887 -11.7162 0.000314125 1 
298 1 15.8307 3.66091 -14.2719 3.48203e-05 1 
300 1 17.9505 5.57382 -14.0381 5.33027e-05 1 
302 1 19.599 3.59978 -12.7818 0.000181847 1 
303 1 22.1885 3.00658 -13.8512 6.23657e-05 1 
304 1 21.7207 5.5114 -12.5434 0.000228339 1 
305 1 24.3087 4.91646 -13.6134 9.25483e-05 1 
306 1 23.3665 3.5378 -11.289 0.000258493 1 
307 1 25.9559 2.94126 -12.3603 0.000227294 1 
308 1 25.4877 5.44252 -11.0465 0.000430721 1 
309 1 28.0733 4.84747 -12.1222 0.000261324 1 
310 1 27.1353 3.46648 -9.79141 0.00251271 1 
311 1 29.7201 2.86995 -10.8708 0.000464584 1 
312 1 29.245 5.36595 -9.55116 0.00208479 1 
313 1 31.8325 4.77835 -10.6394 0.000476962 1 
314 1 30.8884 3.38976 -8.30315 0.00325394 1 
315 1 33.4801 2.80325 -9.3886 0.000899075 1 
316 1 33.004 5.30326 -8.08664 0.00221452 1 
317 1 34.6581 3.3364 -6.82813 0.0206479 1 
323 1 5.2412 6.8917 -14.8699 5.84176e-05 1 
325 1 6.88853 4.91599 -13.6136 9.035e-05 1 
326 1 9.47653 4.32083 -14.6858 4.63377e-05 1 
327 1 9.00654 6.82401 -13.3784 9.45611e-05 1 
328 1 11.5937 6.23033 -14.4527 5.63108e-05 1 
329 1 10.6532 4.84718 -12.1224 0.000256593 1 
330 1 13.2407 4.25354 -13.199 8.09717e-05 1 
331 1 12.7673 6.75522 -11.8919 0.000378574 1 
332 1 15.3575 6.16491 -12.9693 0.000205976 1 
333 1 14.4129 4.77868 -10.6392 0.000465031 1 
334 1 17.0053 4.18938 -11.716 0.000313569 1 
335 1 16.5308 6.6932 -10.4193 0.00150894 1 
336 1 19.1296 6.10414 -11.4808 0.00044207 1 
337 1 18.1796 4.71755 -9.16658 0.00353998 1 
338 1 20.7791 4.13292 -10.2178 0.00199539 1 
339 1 20.3159 6.63864 -8.9222 0.00518509 1 
340 1 22.9027 6.03861 -9.97425 0.00165742 1 
341 1 21.9609 4.66881 -7.63476 0.0299126 1 
342 1 24.5446 4.06476 -8.71965 0.00204824 1 
343 1 24.0847 6.54929 -7.38777 0.0123488 1 
344 1 26.6669 5.95718 -8.47018 0.0023429 1 
345 1 25.7273 4.56377 -6.13453 0.0190085 1 
346 1 28.3072 3.96491 -7.19281 0.0165852 1 
347 1 27.845 6.45544 -5.89068 0.0127712 1 
348 1 30.4131 5.88255 -6.98905 0.00501137 1 
349 1 29.481 4.46099 -4.60934 0.0390958 1 
350 1 32.0583 3.91313 -5.75026 0.0242564 1 
351 1 31.5862 6.40933 -4.45416 0.0343897 1 
352 1 34.1895 5.84874 -5.55132 0.0255603 1 
353 1 33.2841 4.44613 -3.24782 0.440136 1 
354 1 35.3701 5.57364 -14.0382 5.11567e-05 1 
355 1 2.65207 7.48605 -13.803 9.44122e-05 1 
356 1 1.70939 6.10377 -11.4811 0.000444807 1 
357 1 4.30047 5.51092 -12.5437 0.000224251 1 
358 1 3.83507 8.01533 -11.2417 0.000546064 1 
359 1 6.42112 7.41857 -12.3059 0.000270922 1 
360 1 5.48237 6.03796 -9.97478 0.00164407 1 
361 1 8.06747 5.44201 -11.0469 0.000423383 1 
362 1 7.60196 7.93921 -9.73465 0.00123717 1 
363 1 10.1826 7.34702 -10.8129 0.000450697 1 
364 1 9.24682 5.9569 -8.47057 0.002302 1 
365 1 11.8252 5.36596 -9.55129 0.00207692 1 
366 1 11.3549 7.86738 -8.24872 0.00197631 1 
367 1 13.9379 7.27971 -9.33594 0.001003 1 
368 1 12.9937 5.88343 -6.98904 0.00502151 1 
369 1 15.5846 5.30445 -8.08596 0.00219574 1 
370 1 15.1089 7.81273 -6.79316 0.00390101 1 
371 1 17.7044 7.22718 -7.89014 0.0131025 1 
372 1 16.7701 5.85165 -5.54991 0.0265443 1 
373 1 19.3521 5.24497 -6.63918 0.0622832 1 
374 1 18.8818 7.76323 -5.40643 0.185307 1 
375 1 21.5227 7.18436 -6.34812 0.08967 1 
376 1 20.5949 5.73628 -4.20778 5.80068 5 
377 1 23.176 5.12834 -5.00385 0.254514 1 
378 1 22.7592 7.64949 -3.72429 6.16562 5 
379 1 25.2759 7.04774 -4.82861 0.0481642 1 
380 1 24.2319 5.65073 -2.38899 2.65371 5 
381 1 26.8616 5.02308 -3.54159 0.100308 1 
382 1 26.3783 7.51147 -2.29771 0.439365 1 
383 1 28.9934 6.94054 -3.31406 0.148623 1 
385 1 30.7307 4.98244 -2.05753 0.406827 1 
387 1 32.8244 6.95575 -1.99221 0.911658 5 
389 1 36.0797 8.611 -10.1899 0.00137908 1 
390 1 2.89547 6.63792 -8.92282 0.00522876 1 
391 1 2.43648 9.14957 -7.64102 0.0133895 1 
392 1 5.02649 8.5412 -8.67279 0.00326385 1 
393 1 4.10246 7.18284 -6.34907 0.0885042 1 
394 1 6.66443 6.54867 -7.38834 0.0122368 1 
395 1 6.2211 9.05524 -6.08595 0.0173653 1 
396 1 8.78391 8.4562 -7.16686 0.00231237 1 
397 1 7.85567 7.04811 -4.82899 0.0477875 1 
398 1 10.4252 6.45621 -5.89098 0.0127364 1 
399 1 9.9676 8.97469 -4.61383 0.0276235 1 
400 1 12.5194 8.39249 -5.69862 0.0143561 1 
401 1 11.5736 6.94354 -3.31436 0.15056 1 
402 1 14.1667 6.41211 -4.45393 0.0349205 1 
403 1 13.7005 8.93619 -3.21532 0.120867 1 
404 1 16.2934 8.39015 -4.26549 0.112956 1 
405 1 15.4037 6.9606 -1.99256 0.925495 5 
406 1 17.9549 6.50701 -3.00865 6.72775 5 
407 1 17.3936 9.17141 -1.67625 6.90822 5 
408 1 20.1721 8.17568 -3.00241 8.26051 5 
413 1 36.3011 7.76095 -5.40769 0.181504 1 
414 1 35.8309 10.2285 -4.12568 0.409067 1 
415 1 3.65692 9.70385 -5.06228 0.192824 1 
416 1 2.74928 8.17494 -3.00183 8.26979 5 
417 1 5.3379 7.64939 -3.72397 6.16303 5 
418 1 4.93496 10.1045 -2.39648 2.14164 5 
419 1 7.43989 9.58546 -3.53433 0.0884675 1 
421 1 8.95923 7.5141 -2.29891 0.441471 1 
423 1 11.1979 9.5011 -2.13517 0.605063 1 
681 1 29.0137 6.23066 -14.4524 5.69294e-05 1 
683 1 31.1304 8.14204 -14.2231 0.000110937 1 
685 1 32.7772 6.16497 -12.9692 0.000208217 1 
686 1 34.8985 8.07889 -12.7396 0.000198994 1 
708 1 20.0723 7.48617 -13.8027 9.88654e-05 1 
709 1 22.6614 6.89201 -14.8696 6.06609e-05 1 
710 1 22.1935 9.39636 -13.5671 0.000117474 1 
711 1 24.7799 8.80181 -14.6357 6.47421e-05 1 
712 1 23.8416 7.41911 -12.3052 0.000273746 1 
713 1 26.4268 6.82454 -13.3779 9.58729e-05 1 
714 1 25.9581 9.32745 -12.0726 0.000260283 1 
715 1 28.5424 8.73448 -13.1483 0.000150015 1 
716 1 27.6028 7.34771 -10.8122 0.00046237 1 
717 1 30.1871 6.7556 -11.8916 0.000383595 1 
718 1 29.7151 9.26057 -10.5912 0.000529629 1 
719 1 32.3034 8.66998 -11.6703 0.000549282 1 
720 1 31.3572 7.27971 -9.33593 0.00101756 1 
721 1 33.9501 6.69298 -10.4196 0.00152409 1 
722 1 33.4744 9.20189 -9.12958 0.00293731 1 
723 1 35.1234 7.22605 -7.89101 0.0131078 1 
732 1 7.3596 8.80142 -14.6364 6.33146e-05 1 
734 1 9.47608 10.7125 -14.4069 7.88501e-05 1 
736 1 11.1222 8.73377 -13.149 0.000149212 1 
737 1 13.7105 8.1416 -14.2234 0.000110612 1 
738 1 13.2384 10.6476 -12.9249 0.00019707 1 
739 1 15.8301 10.0551 -13.9954 9.50488e-05 1 
740 1 14.8839 8.66936 -11.6707 0.000541642 1 
741 1 17.4792 8.07868 -12.7395 0.000200765 1 
742 1 17.0076 10.5852 -11.4456 0.00040759 1 
743 1 19.6041 9.99154 -12.5043 0.000278492 1 
744 1 18.661 8.61095 -10.1895 0.00137048 1 
745 1 21.2557 8.01568 -11.241 0.000553395 1 
746 1 20.7929 10.5213 -9.94323 0.00193154 1 
747 1 23.3771 9.92258 -11.0026 0.000428231 1 
748 1 22.4474 8.54198 -8.67181 0.00330138 1 
749 1 25.0226 7.94005 -9.73375 0.00125201 1 
750 1 24.5624 10.4464 -8.43302 0.00137931 1 
751 1 27.1349 9.85326 -9.51024 0.00064007 1 
752 1 26.2043 8.45697 -7.16595 0.00241088 1 
753 1 28.7748 7.8678 -8.24795 0.0020149 1 
754 1 28.3102 10.3869 -6.95434 0.00335703 1 
755 1 30.8836 9.78969 -8.04328 0.00171705 1 
756 1 29.9386 8.39183 -5.69763 0.014344 1 
757 1 32.5279 7.81107 -6.79395 0.00370297 1 
758 1 32.0476 10.3351 -5.51442 0.0143122 1 
759 1 34.6448 9.74038 -6.61202 0.0238118 1 
760 1 33.713 8.3847 -4.26742 0.107034 1 
762 1 35.3717 11.9689 -13.7639 7.09556e-05 1 
763 1 3.12336 11.374 -14.8281 4.81142e-05 1 
764 1 37.0229 9.99179 -12.5047 0.000263225 1 
765 1 4.77296 9.39617 -13.5677 0.000112073 1 
766 1 4.30487 11.9013 -12.2687 0.000237274 1 
767 1 6.89061 11.3064 -13.3354 0.000115196 1 
768 1 5.95608 9.92196 -11.0038 0.000422858 1 
769 1 8.53749 9.32662 -12.0736 0.000258987 1 
770 1 8.06937 11.8329 -10.7742 0.000421453 1 
771 1 10.6512 11.2398 -11.8505 0.000266084 1 
772 1 9.71425 9.85185 -9.51172 0.000621342 1 
773 1 12.2952 9.25952 -10.5921 0.000518397 1 
774 1 11.824 11.7709 -9.30023 0.000988326 1 
775 1 14.411 11.1783 -10.3773 0.000764155 1 
776 1 13.4643 9.78915 -8.044 0.00176916 1 
777 1 16.0555 9.20155 -9.12948 0.00287706 1 
778 1 15.5803 11.716 -7.84159 0.00366207 1 
779 1 18.1906 11.1174 -8.90065 0.00226885 1 
780 1 17.2261 9.74178 -6.61074 0.0234592 1 
781 1 19.8575 9.1501 -7.64015 0.0133441 1 
782 1 19.3852 11.6473 -6.35033 0.0157944 1 
783 1 21.9948 11.0477 -7.36718 0.0124104 1 
784 1 21.0778 9.70652 -5.06036 0.197589 1 
785 1 23.6421 9.05658 -6.08495 0.0175601 1 
786 1 23.2143 11.5612 -4.74944 0.0797759 1 
787 1 25.7515 10.9795 -5.87458 0.00783703 1 
788 1 24.8609 9.58573 -3.53366 0.0899971 1 
789 1 27.3871 8.97363 -4.61339 0.0273269 1 
790 1 26.9359 11.5386 -3.33978 0.09181 1 
791 1 29.4802 10.9474 -4.40534 0.0450034 1 
792 1 28.6137 9.49449 -2.13478 0.590979 1 
793 1 31.12 8.9319 -3.21396 0.114303 1 
794 1 30.5989 11.498 -1.77738 5.01413 5 
795 1 33.159 10.9498 -2.97818 0.368302 1 
797 1 34.8166 9.15938 -1.67989 6.88883 5 
799 1 36.5534 12.4978 -11.2094 0.000470175 1 
800 1 35.609 11.1184 -8.90059 0.00226723 1 
801 1 3.37159 10.5213 -9.94416 0.00185005 1 
802 1 37.742 13.0231 -8.64956 0.00277817 1 
803 1 5.48966 12.4266 -9.70477 0.00101099 1 
804 1 4.57271 11.047 -7.36904 0.0118303 1 
805 1 7.14092 10.445 -8.43475 0.0013854 1 
806 1 6.67567 12.9511 -7.13251 0.00599167 1 
807 1 9.24841 12.3655 -8.21355 0.00189393 1 
808 1 8.33015 10.9774 -5.87684 0.00758392 1 
809 1 10.8902 10.3856 -6.95602 0.00314379 1 
810 1 10.4316 12.9205 -5.64689 0.0257881 1 
811 1 12.9908 12.3133 -6.76045 0.00753674 1 
812 1 12.0628 10.9478 -4.40736 0.0419634 1 
813 1 14.6286 10.3385 -5.51433 0.0155596 1 
814 1 14.1175 12.8753 -4.2251 0.166609 1 
815 1 16.7373 12.2498 -5.32229 0.0552484 1 
816 1 15.7355 10.9592 -2.9777 0.38821 1 
817 1 18.4115 10.2322 -4.12317 0.418546 1 
818 1 17.9408 12.6538 -2.87522 1.18985 5 
819 1 20.6239 12.1808 -3.77137 0.318606 1 
821 1 22.359 10.1062 -2.39707 2.15809 5 
823 1 24.479 12.1329 -2.12771 1.40821 5 
826 1 36.8033 11.6478 -6.35044 0.0164284 1 
827 1 36.3239 14.1335 -5.07516 0.0538932 1 
828 1 4.10744 13.5397 -6.07633 0.0187201 1 
829 1 3.20436 12.1777 -3.77277 0.311791 1 
830 1 5.79163 11.5585 -4.75257 0.0768845 1 
831 1 5.33172 14.0298 -3.44541 0.205378 1 
832 1 7.86282 13.4978 -4.56648 0.0283864 1 
833 1 7.05405 12.1299 -2.13508 1.43359 5 
834 1 9.51652 11.5393 -3.34238 0.0883384 1 
835 1 9.08181 14.0986 -2.009 1.75537 5 
836 1 11.6266 13.5403 -3.06155 4.69619 5 
838 1 13.1848 11.5118 -1.77556 5.01922 5 
839 1 15 13.5694 -1.69905 6.55309 5 
842 1 35.3656 12.647 -2.88006 1.16486 5 
843 1 37.6075 14.614 -2.56151 0.532789 1 
1236 1 33.2497 10.0557 -13.9951 9.35164e-05 1 
1259 1 20.5436 11.3737 -14.8276 5.43297e-05 1 
1261 1 22.6621 13.2853 -14.5951 5.54127e-05 1 
1263 1 24.3112 11.3067 -13.3344 0.0001233 1 
1264 1 26.8964 10.713 -14.406 7.85689e-05 1 
1265 1 26.4257 13.2201 -13.1076 0.000143797 1 
1266 1 29.0127 12.6272 -14.1798 8.114e-05 1 
1267 1 28.0716 11.241 -11.8491 0.00025985 1 
1268 1 30.6583 10.6485 -12.9241 0.000196763 1 
1269 1 30.187 13.1589 -11.6287 0.000247547 1 
1270 1 32.7781 12.564 -12.699 0.000140041 1 
1271 1 31.8304 11.1799 -10.3763 0.000788777 1 
1272 1 34.4267 10.5861 -11.4453 0.000403656 1 
1273 1 33.9546 13.0957 -10.1525 0.000707802 1 
1286 1 11.5926 12.6266 -14.1806 8.29817e-05 1 
1288 1 13.7114 14.5419 -13.9533 4.97513e-05 1 
1290 1 15.3586 12.5629 -12.6996 0.000143568 1 
1291 1 17.9524 11.9683 -13.7639 7.91095e-05 1 
1292 1 17.4816 14.4756 -12.4677 0.000147342 1 
1293 1 20.0736 13.8797 -13.5298 9.13912e-05 1 
1294 1 19.1348 12.4969 -11.2092 0.000506784 1 
1295 1 21.7257 11.9012 -12.2678 0.000257357 1 
1296 1 21.2556 14.4058 -10.9713 0.000394594 1 
1297 1 23.8413 13.8129 -12.0361 0.000216979 1 
1298 1 22.9114 12.4271 -9.70305 0.00105124 1 
1299 1 25.4905 11.8341 -10.7723 0.000445589 1 
1300 1 25.0193 14.3422 -9.47582 0.000938162 1 
1301 1 27.6 13.7519 -10.5545 0.000720498 1 
1302 1 26.6702 12.368 -8.21019 0.0020397 1 
1303 1 29.2443 11.773 -9.29815 0.000957841 1 
1304 1 28.7693 14.2923 -8.01116 0.00623397 1 
1305 1 31.3596 13.6965 -9.08311 0.000879541 1 
1306 1 30.4104 12.3147 -6.75833 0.0072439 1 
1307 1 32.9989 11.7175 -7.84089 0.00390642 1 
1308 1 32.5276 14.2374 -6.53704 0.0086717 1 
1309 1 35.1331 13.6234 -7.61014 0.00500308 1 
1310 1 34.1561 12.2477 -5.3241 0.0559405 1 
1312 1 35.8427 15.8598 -14.7884 2.22464e-05 1 
1314 1 37.4928 13.8804 -13.5303 7.56725e-05 1 
1315 1 5.24188 13.2855 -14.5958 4.67518e-05 1 
1316 1 4.77131 15.7928 -13.2977 6.51928e-05 1 
1317 1 7.35829 15.1992 -14.3662 4.60914e-05 1 
1318 1 6.42057 13.8128 -12.0374 0.000193965 1 
1319 1 9.00526 13.2196 -13.1087 0.00014289 1 
1320 1 8.53322 15.7295 -11.8124 0.00027898 1 
1321 1 11.121 15.1365 -12.8843 0.000151216 1 
1322 1 10.1791 13.7503 -10.5568 0.000740874 1 
1323 1 12.7669 13.1575 -11.6302 0.000256468 1 
1324 1 12.2944 15.6718 -10.3383 0.0006647 1 
1325 1 14.8879 15.0736 -11.4036 0.000155916 1 
1326 1 13.9397 13.6935 -9.08571 0.000888225 1 
1327 1 16.5357 13.0939 -10.1533 0.000711487 1 
1328 1 16.0659 15.6038 -8.85386 0.00111665 1 
1329 1 18.6628 15.0016 -9.91473 0.000879376 1 
1330 1 17.7149 13.6206 -7.61104 0.00504204 1 
1331 1 20.3244 13.0222 -8.6488 0.00293155 1 
1332 1 19.8481 15.5189 -7.35871 0.00511254 1 
1333 1 22.4403 14.9297 -8.4084 0.00180194 1 
1334 1 21.5301 13.5395 -6.07441 0.0194851 1 
1335 1 24.0985 12.953 -7.12941 0.00597038 1 
1336 1 23.6219 15.4536 -5.83355 0.0134584 1 
1337 1 26.1942 14.8824 -6.919 0.00412386 1 
1338 1 25.2861 13.5018 -4.56108 0.029882 1 
1339 1 27.8533 12.924 -5.64122 0.0272395 1 
1340 1 27.3693 15.4553 -4.37619 0.0824187 1 
1341 1 29.9284 14.8528 -5.49747 0.0662322 1 
1342 1 29.044 13.5434 -3.04949 4.68182 5 
1343 1 31.5371 12.8655 -4.22471 0.159516 1 
1344 1 31.0915 15.4628 -3.05013 5.78145 5 
1345 1 33.699 14.7482 -3.98804 0.300302 1 
1346 1 32.4289 13.5382 -1.6943 6.5597 5 
1348 1 37.0216 16.3874 -12.2335 0.000107018 1 
1349 1 36.0814 15.0034 -9.91486 0.000777656 1 
1350 1 3.83471 14.4065 -10.9723 0.000346658 1 
1351 1 38.1999 16.9111 -9.67798 0.000500968 1 
1352 1 5.94901 16.3207 -10.7401 0.000329814 1 
1353 1 5.01855 14.93 -8.41033 0.00169655 1 
1354 1 7.59764 14.3411 -9.47866 0.000939184 1 
1355 1 7.12411 16.8513 -8.17944 0.00265847 1 
1356 1 9.70358 16.266 -9.26607 0.00219729 1 
1357 1 8.77048 14.8792 -6.92539 0.00493529 1 
1358 1 11.3479 14.2888 -8.01544 0.00638547 1 
1359 1 10.8637 16.8203 -6.74136 0.0200852 1 
1360 1 13.4691 16.2149 -7.8024 0.0037586 1 
1361 1 12.5066 14.8498 -5.50313 0.0667649 1 
1362 1 15.1089 14.2327 -6.54039 0.00863339 1 
1363 1 14.6592 16.7546 -5.26986 0.0852453 1 
1364 1 17.2452 16.118 -6.29682 0.0109784 1 
1365 1 16.2795 14.7514 -3.98321 0.327706 1 
1366 1 18.9059 14.1301 -5.07562 0.0535365 1 
1367 1 18.4234 16.5804 -3.73084 0.110498 1 
1368 1 21.0464 16.0274 -4.79491 0.0427485 1 
1369 1 20.1865 14.6159 -2.55903 0.561967 1 
1370 1 22.7543 14.0317 -3.44069 0.210098 1 
1371 1 22.2313 16.5352 -2.16456 0.53199 1 
1372 1 24.8006 16.0067 -3.27874 0.0471158 1 
1374 1 26.5034 14.1033 -2.00166 1.72372 5 
1376 1 28.5801 16.2466 -1.89085 7.63128 5 
1378 1 35.6079 17.5082 -8.61347 0.00155105 1 
1379 1 37.2657 15.5215 -7.35911 0.00480527 1 
1380 1 36.7731 18.0121 -6.05478 0.012048 1 
1381 1 4.5354 17.4284 -7.12228 0.00313528 1 
1382 1 38.4649 16.0295 -4.79605 0.0412386 1 
1383 1 6.19952 15.4528 -5.83757 0.0132369 1 
1384 1 5.69453 17.941 -4.55921 0.0220898 1 
1385 1 8.29875 17.4025 -5.61517 0.024114 1 
1386 1 7.3769 16.0024 -3.28562 0.0487215 1 
1387 1 9.94041 15.4483 -4.38981 0.0838695 1 
1388 1 9.45617 18.0308 -3.0363 1.182 5 
1389 1 12.0176 17.4082 -4.2688 0.205912 1 
1390 1 11.1546 16.2162 -1.92206 7.59143 5 
1391 1 13.6599 15.4946 -3.05261 5.66387 5 
1392 1 13.2957 18.1087 -1.78905 12.8941 5 
1393 1 15.8232 17.1971 -2.5495 3.33222 5 
1397 1 35.8427 16.5931 -3.73358 0.127346 1 
1398 1 35.2933 19.0565 -2.38661 1.86008 5 
1399 1 37.9073 18.499 -3.5098 0.139567 1 
1401 1 4.8172 16.5367 -2.16602 0.543967 1 
1403 1 6.85198 18.4544 -2.02456 0.449206 1 
2871 1 7.44565 26.1111 -1.60186 11.5214 5 
1952 1 24.778 15.1989 -14.3658 5.26837e-05 1 
1954 1 26.8939 17.1149 -14.1386 6.10962e-05 1 
1956 1 28.541 15.137 -12.8837 0.000135322 1 
1957 1 31.1311 14.5426 -13.9531 4.66641e-05 1 
1958 1 30.6603 17.0536 -12.6565 7.97257e-05 1 
1959 1 33.2518 16.4564 -13.7227 2.83982e-05 1 
1960 1 32.3075 15.0753 -11.4029 0.000144491 1 
1961 1 34.9008 14.4768 -12.4678 0.000122878 1 
1962 1 34.4303 16.9858 -11.1694 0.000172957 1 
1978 1 14.1841 18.4346 -14.9749 3.00249e-05 1 
1980 1 15.8321 16.4555 -13.7218 4.63761e-05 1 
1981 1 18.4231 15.859 -14.7877 3.30078e-05 1 
1982 1 17.9518 18.3671 -13.4876 6.25698e-05 1 
1983 1 20.5413 17.7717 -14.5548 3.06493e-05 1 
1984 1 19.602 16.3863 -12.2326 0.000148062 1 
1985 1 22.1911 15.7921 -13.297 8.60512e-05 1 
1986 1 21.7179 18.2998 -11.9993 0.000116132 1 
1987 1 24.3056 17.7077 -13.0679 8.05915e-05 1 
1988 1 23.3689 16.3202 -10.739 0.000399821 1 
1989 1 25.9532 15.7296 -11.8115 0.00027817 1 
1990 1 25.4781 18.2407 -10.5151 0.000565427 1 
1991 1 28.068 17.6494 -11.5888 0.000271147 1 
1992 1 27.1243 16.267 -9.26364 0.00206758 1 
1993 1 29.715 15.6734 -10.3363 0.000529378 1 
1994 1 29.2424 18.1916 -9.04593 0.0013889 1 
1995 1 31.8394 17.5888 -10.1065 0.000525398 1 
1996 1 30.891 16.2195 -7.79654 0.00294653 1 
1997 1 33.485 15.6069 -8.85253 0.00100263 1 
1998 1 33.0243 18.1214 -7.54924 0.00727157 1 
1999 1 34.6625 16.125 -6.29542 0.00918974 1 
2003 1 37.9617 17.7725 -14.5557 1.77559e-05 1 
2005 1 5.24023 19.6868 -14.3232 1.46014e-05 1 
2007 1 6.88712 17.7084 -13.0675 7.10004e-05 1 
2008 1 9.47489 17.1153 -14.1377 6.67356e-05 1 
2009 1 9.00434 19.6261 -12.8364 0.000112044 1 
2010 1 11.5938 19.0311 -13.9069 8.26049e-05 1 
2011 1 10.649 17.6498 -11.5875 0.000404919 1 
2012 1 13.2408 17.053 -12.6555 0.0001041 1 
2013 1 12.7706 19.5652 -11.3548 0.000489932 1 
2014 1 15.3623 18.9654 -12.4201 0.000163501 1 
2015 1 14.4196 17.5869 -10.1055 0.000690382 1 
2016 1 17.0107 16.984 -11.1684 0.000257679 1 
2017 1 16.5418 19.4928 -9.86097 0.00122097 1 
2018 1 19.1284 18.8931 -10.9319 0.000323771 1 
2019 1 18.1887 17.5048 -8.61198 0.00192805 1 
2020 1 20.7806 16.9098 -9.67674 0.000625388 1 
2021 1 20.2984 19.4122 -8.37805 0.00229931 1 
2022 1 22.8913 18.8276 -9.44454 0.000545204 1 
2023 1 21.9556 17.4273 -7.1207 0.00345693 1 
2024 1 24.5442 16.8511 -8.17721 0.00290087 1 
2025 1 24.0572 19.3566 -6.89255 0.00464303 1 
2026 1 26.6444 18.7847 -7.96859 0.00451484 1 
2027 1 25.7194 17.4031 -5.61137 0.025588 1 
2028 1 28.2873 16.8246 -6.73542 0.0189875 1 
2029 1 27.8 19.361 -5.43449 0.0378444 1 
2030 1 30.4286 18.7466 -6.50828 0.0121445 1 
2031 1 29.4486 17.4157 -4.25912 0.208787 1 
2032 1 32.0802 16.7698 -5.25536 0.070255 1 
2033 1 31.6428 19.3074 -3.95601 5.83788 5 
2034 1 34.1926 18.6154 -4.94778 0.0605651 1 
2035 1 33.273 17.2047 -2.55276 3.71449 5 
2036 1 35.372 18.3682 -13.4897 3.19692e-05 1 
2037 1 37.4906 20.2807 -13.2563 2.6214e-05 1 
2038 1 36.5493 18.8948 -10.9347 0.000224853 1 
2039 1 4.2994 18.3006 -12.0002 7.36106e-05 1 
2040 1 38.6658 20.8088 -10.7015 0.000207012 1 
2041 1 6.41591 20.2179 -11.7677 8.6684e-05 1 
2042 1 5.47346 18.8281 -9.4453 0.000420896 1 
2043 1 8.06047 18.2415 -10.5139 0.000611449 1 
2044 1 7.58873 20.7523 -9.21204 0.00074698 1 
2045 1 10.1792 20.164 -10.2816 0.000725195 1 
2046 1 9.22864 18.786 -7.96539 0.00576891 1 
2047 1 11.822 18.192 -9.04482 0.00269183 1 
2048 1 11.3581 20.7096 -7.72226 0.00587912 1 
2049 1 13.9502 20.0989 -8.80358 0.00285679 1 
2050 1 13.0001 18.7414 -6.51302 0.0203169 1 
2051 1 15.6045 18.1163 -7.54744 0.00967683 1 
2052 1 15.1386 20.6266 -6.25293 0.0503155 1 
2053 1 17.7165 20.0044 -7.28535 0.00937356 1 
2054 1 16.7779 18.5947 -4.93973 0.0828354 1 
2055 1 19.3545 18.0068 -6.05212 0.0125509 1 
2056 1 18.8919 20.5048 -4.71255 0.0395551 1 
2057 1 21.4553 19.9181 -5.84159 0.0183063 1 
2058 1 20.4848 18.4956 -3.50526 0.137879 1 
2059 1 23.1125 17.9406 -4.55738 0.0217231 1 
2060 1 22.5691 20.4078 -3.33677 0.165532 1 
2061 1 25.2042 19.909 -4.35646 0.0586357 1 
2062 1 24.2653 18.4555 -2.02466 0.433719 1 
2063 1 26.881 18.0387 -3.03438 0.96993 5 
2064 1 26.2928 20.5911 -1.85987 3.69392 5 
2065 1 29.0122 19.8665 -2.94481 1.49234 5 
2066 1 30.7669 17.9853 -1.79209 10.6085 5 
2070 1 36.0777 21.4019 -9.63158 0.000824831 1 
2071 1 37.7203 19.4143 -8.38134 0.00208733 1 
2072 1 37.2443 21.9217 -7.08305 0.0110934 1 
2073 1 4.99616 21.3376 -8.15095 0.00239173 1 
2074 1 38.8781 19.9196 -5.84392 0.0179896 1 
2075 1 6.64003 19.356 -6.89249 0.00422404 1 
2076 1 6.1521 21.867 -5.60882 0.023929 1 
2077 1 8.75831 21.2979 -6.65292 0.0093786 1 
2078 1 7.79123 19.9066 -4.35427 0.0584405 1 
2079 1 10.3848 19.3607 -5.42719 0.053225 1 
2080 1 9.94367 21.8949 -4.07616 0.300544 1 
2081 1 12.5507 21.2482 -5.15151 0.361957 1 
2082 1 11.5842 19.8759 -2.94865 6.70343 5 
2083 1 14.2248 19.261 -4.00632 2.01232 5 
2084 1 13.9123 21.4016 -2.21641 6.96923 5 
2085 1 16.3213 21.0774 -3.65419 1.32401 5 
2087 1 17.8819 19.0288 -2.38613 1.27738 5 
2089 1 20.0025 21.0508 -2.10063 3.64865 5 
2092 1 36.3149 20.5113 -4.71821 0.0390876 1 
2093 1 35.8945 23.0296 -3.38808 0.175863 1 
2094 1 38.3938 22.4272 -4.57422 0.151346 1 
2095 1 37.4304 21.0459 -2.11039 3.56276 5 
2096 1 5.1552 20.4046 -3.33637 0.16369 1 
2097 1 39.6138 22.8749 -2.1401 8.03682 5 
2098 1 7.31902 22.4291 -3.08271 3.76428 5 
2100 1 8.89343 20.5952 -1.85981 4.03454 5 
2831 1 28.6106 22.2472 -1.55981 7.91222 5 
2720 1 29.0122 19.0311 -13.9102 5.59596e-05 1 
2721 1 31.6035 18.4351 -14.9772 1.5208e-05 1 
2722 1 31.1329 20.9451 -13.6778 5.2582e-05 1 
2723 1 33.7235 20.3477 -14.7445 1.36244e-05 1 
2724 1 32.782 18.9667 -12.4237 8.80726e-05 1 
2725 1 34.9017 20.8769 -12.189 7.21073e-05 1 
2743 1 16.3033 20.3465 -14.7408 3.65234e-05 1 
2745 1 18.4208 22.2581 -14.507 3.03133e-05 1 
2747 1 20.0688 20.2795 -13.2541 5.61977e-05 1 
2748 1 22.6579 19.6862 -14.3233 2.03295e-05 1 
2749 1 22.1851 22.1944 -13.0225 4.11847e-05 1 
2750 1 24.7749 21.6024 -14.0925 3.43952e-05 1 
2751 1 23.8321 20.2175 -11.7691 8.28036e-05 1 
2752 1 26.4211 19.6257 -12.8405 0.000115998 1 
2753 1 25.9492 22.1372 -11.5387 0.000224867 1 
2754 1 28.5404 21.5422 -12.6108 0.000164425 1 
2755 1 27.5933 20.1633 -10.2926 0.000683726 1 
2756 1 30.189 19.5659 -11.3607 0.00024122 1 
2757 1 29.7166 22.0789 -10.0627 0.00108457 1 
2758 1 32.3127 21.4774 -11.1235 0.000339115 1 
2759 1 31.3697 20.1024 -8.81372 0.00134248 1 
2760 1 33.9624 19.4959 -9.86658 0.000964124 1 
2761 1 33.4983 22.0073 -8.56383 0.00408385 1 
2762 1 35.1391 20.0117 -7.29422 0.00862701 1 
2771 1 7.35879 21.6023 -14.0895 4.03712e-05 1 
2773 1 9.47848 23.5161 -13.8537 6.26682e-05 1 
2774 1 12.0669 22.9205 -14.9233 4.72522e-05 1 
2775 1 11.1242 21.5409 -12.6017 0.000143162 1 
2776 1 13.7142 20.9439 -13.6714 0.000113925 1 
2777 1 13.245 23.4506 -12.3621 0.000229975 1 
2778 1 15.8325 22.8536 -13.4349 9.15976e-05 1 
2779 1 14.8929 21.4741 -11.112 0.000620711 1 
2780 1 17.4802 20.8748 -12.1833 0.000145557 1 
2781 1 17.0081 23.3799 -10.8727 0.000479855 1 
2782 1 19.5952 22.7861 -11.9494 0.000114768 1 
2783 1 18.6531 21.3983 -9.62346 0.00101274 1 
2784 1 21.2422 20.8076 -10.6991 0.000281651 1 
2785 1 20.7666 23.3148 -9.39243 0.000858511 1 
2786 1 23.3587 22.7263 -10.469 0.000266519 1 
2787 1 22.41 21.3372 -8.14972 0.00243097 1 
2788 1 25.0031 20.753 -9.21626 0.000649906 1 
2789 1 24.5324 23.2607 -7.9166 0.00315502 1 
2790 1 27.1223 22.6785 -8.98526 0.00153659 1 
2791 1 26.1702 21.3022 -6.66239 0.00838734 1 
2792 1 28.7639 20.7072 -7.75533 0.00601719 1 
2793 1 28.2954 23.2217 -6.42967 0.0127835 1 
2794 1 30.8961 22.6179 -7.52311 0.0102321 1 
2795 1 29.9347 21.2561 -5.24391 0.0771276 1 
2796 1 32.5608 20.6382 -6.26692 0.019874 1 
2797 1 32.1049 23.1696 -5.0101 0.262766 1 
2798 1 34.6887 22.5183 -5.97815 0.0364869 1 
2799 1 33.7542 21.122 -3.66983 1.53864 5 
2800 1 35.8426 22.2597 -14.5111 9.10922e-06 1 
2801 1 35.3716 24.7672 -13.2097 3.17637e-05 1 
2802 1 37.9613 24.1723 -14.2782 1.68416e-05 1 
2803 1 37.0197 22.7885 -11.9547 5.06054e-05 1 
2804 1 39.6091 22.195 -13.0228 3.44259e-05 1 
2805 1 39.1378 24.7017 -11.7234 0.000212229 1 
2806 1 6.89029 24.1102 -12.7861 0.000179237 1 
2807 1 5.94579 22.7261 -10.4674 0.000329282 1 
2808 1 8.53529 22.1358 -11.5316 0.000246819 1 
2809 1 8.0708 24.6435 -10.2221 0.00197628 1 
2810 1 10.6567 24.0475 -11.2916 0.000261807 1 
2811 1 9.71155 22.6728 -8.96974 0.00149233 1 
2812 1 12.3018 22.0741 -10.0425 0.000648419 1 
2813 1 11.8346 24.5749 -8.72216 0.00201926 1 
2814 1 14.4244 23.9764 -9.79329 0.00252662 1 
2815 1 13.4825 22.6019 -7.47716 0.0142682 1 
2816 1 16.0745 21.9988 -8.54426 0.00651539 1 
2817 1 15.5959 24.476 -7.19462 0.0167577 1 
2818 1 18.176 23.901 -8.30555 0.00325374 1 
2819 1 17.2491 22.5023 -5.94879 0.0244498 1 
2820 1 19.815 21.918 -7.07554 0.0120992 1 
2821 1 19.345 24.4267 -5.75323 0.023902 1 
2822 1 21.943 23.8506 -6.83372 0.0202544 1 