ITEM: TIMESTEP
0
ITEM: NUMBER OF ATOMS
3432
ITEM: BOX BOUNDS xy xz yz pp pp ss
-11.115924153 50.907710614 -11.115924153
0 37.768670618 0
-108.217960748188 106.5638860697466 0
ITEM: ATOMS id type x y z c_csym c_cna 
1 1 49.5974 0.77768 -1.33575 2.32455 5 
2 1 48.5239 1.11457 -6.27348 0.00637111 1 
3 1 -0.290756 3.03977 -6.59945 0.00388069 1 
4 1 50.0809 1.91583 -4.00502 0.0664966 1 
5 1 49.4829 4.65024 -4.50718 0.0356299 1 
6 1 0.157048 5.43498 -2.18871 3.78657 5 
7 1 -0.431031 8.24571 -2.84328 0.0843869 1 
8 1 45.2335 0.825692 -3.85027 0.472683 1 
9 1 47.3777 2.72509 -4.21016 0.0787781 1 
10 1 46.8393 1.48978 -1.73257 6.55359 5 
11 1 48.8628 3.56457 -1.83903 5.42848 5 
12 1 46.2122 4.38573 -2.15733 2.33135 5 
13 1 48.4 6.27764 -2.40757 0.480811 5 
17 1 42.1394 0.463536 -1.70417 7.77647 5 
18 1 44.1569 2.48104 -1.23879 11.6462 5 
19 1 -0.286569 1.73867 -13.508 5.64724e-05 1 
20 1 50.1403 0.61943 -10.9193 0.000141875 1 
21 1 49.4959 3.36073 -11.4353 0.000130564 1 
22 1 0.198668 4.16181 -9.19216 0.000328113 1 
23 1 -0.445786 6.901 -9.71345 0.000218112 1 
24 1 47.4009 1.43959 -11.0856 0.000108281 1 
25 1 46.9166 0.315736 -8.50604 0.000399813 1 
26 1 49.0131 2.24039 -8.84916 0.00054227 1 
27 1 46.2738 3.06127 -9.01593 0.000981798 1 
28 1 48.3708 4.98076 -9.36341 0.000464641 1 
29 1 47.8853 3.85749 -6.7777 0.0037619 1 
30 1 -0.928173 5.77897 -7.11352 0.00169376 1 
31 1 47.246 6.59708 -7.2971 0.00198681 1 
32 1 -1.57057 8.52057 -7.64482 0.00133232 1 
33 1 -2.05226 7.39546 -5.04155 0.0144055 1 
34 1 0.052857 9.32686 -5.42309 0.0108699 1 
35 1 -2.7004 10.1463 -5.59206 0.00782643 1 
36 1 -0.612436 12.0784 -5.9523 0.0159879 1 
37 1 -1.07814 10.9488 -3.40296 0.0807137 1 
38 1 -1.72591 13.7214 -3.82351 0.350461 1 
39 1 -0.269335 14.63 -1.16686 11.6837 5 
40 1 -0.880612 17.239 -2.10154 1.44878 5 
42 1 44.1749 1.13861 -8.67546 0.00116308 1 
43 1 45.783 1.93468 -6.44152 0.011623 1 
44 1 43.0528 2.76631 -6.60994 0.0143785 1 
45 1 45.146 4.66886 -6.92627 0.0124951 1 
46 1 44.6569 3.53506 -4.30242 0.29914 1 
47 1 46.7725 5.47205 -4.71588 0.0376888 1 
48 1 44.0244 6.27101 -4.86792 0.0238439 1 
49 1 46.1248 8.21749 -5.24447 0.00508989 1 
50 1 45.6674 7.07226 -2.69684 0.162977 1 
51 1 47.7448 9.04198 -2.99648 0.0410562 1 
52 1 45.0088 9.84803 -3.19223 0.0544569 1 
53 1 47.0577 11.776 -3.52608 0.0656344 1 
55 1 -2.22102 12.5102 -1.39154 6.36884 5 
56 1 45.8921 13.3672 -1.33575 2.32455 5 
57 1 -3.03297 15.2377 -1.82788 4.48396 5 
58 1 40.9593 0.851391 -6.27425 0.020748 1 
59 1 42.5787 1.69707 -4.0269 0.503413 1 
60 1 39.8455 2.50466 -4.23196 0.16239 1 
61 1 41.9418 4.37764 -4.51449 0.0444563 1 
62 1 41.4136 3.2422 -1.81164 7.01262 5 
63 1 43.5447 5.13303 -2.19794 6.63563 5 
64 1 40.8635 5.94198 -2.45196 2.15693 5 
65 1 42.8933 7.89748 -2.88324 0.114641 1 
69 1 43.8275 11.4535 -1.12165 0.742771 1 
70 1 37.6888 0.591759 -3.8954 0.293274 1 
71 1 39.2658 1.38125 -1.82873 6.96192 5 
72 1 36.5948 2.30127 -1.5673 1.94565 5 
73 1 38.6856 4.14837 -2.12697 5.97867 5 
82 1 47.8828 2.55988 -13.6709 4.8125e-05 1 
83 1 -0.931391 4.47981 -14.0258 4.19079e-05 1 
84 1 47.238 5.30128 -14.1883 3.08172e-05 1 
85 1 -1.57664 7.22107 -14.5449 2.3252e-05 1 
86 1 48.8509 6.10137 -11.9536 7.83402e-05 1 
87 1 0.0339438 8.02131 -12.3093 5.443e-05 1 
88 1 48.2052 8.84306 -12.4736 3.76217e-05 1 
89 1 -0.611225 10.7642 -12.8294 3.84385e-05 1 
90 1 -1.09182 9.64378 -10.2379 0.000147739 1 
91 1 -1.73694 12.3887 -10.756 0.000145997 1 
92 1 -0.127524 13.1958 -8.52144 0.0012463 1 
93 1 -0.770804 15.9347 -9.02442 0.00149707 1 
94 1 0.195619 19.4689 -7.30391 0.00228981 1 
95 1 45.7867 0.639103 -13.3167 0.000100157 1 
96 1 43.0443 1.46126 -13.4746 0.000121117 1 
97 1 45.1425 3.38139 -13.8325 7.26374e-05 1 
98 1 44.6599 2.26131 -11.2496 0.000270391 1 
99 1 46.7569 4.18155 -11.6005 0.000102002 1 
100 1 44.0161 5.00288 -11.7637 0.000211933 1 
101 1 46.1119 6.92197 -12.118 5.68407e-05 1 
102 1 45.6308 5.7986 -9.52773 0.000771239 1 
103 1 47.7254 7.72133 -9.88463 0.00018102 1 
104 1 44.9853 8.54124 -10.0519 0.000171418 1 
105 1 47.079 10.4653 -10.4051 0.000127639 1 
106 1 46.5986 9.34138 -7.82313 0.000599041 1 
107 1 -2.22 11.2692 -8.17069 0.00152087 1 
108 1 45.955 12.0889 -8.3348 0.00140705 1 
109 1 -2.86213 14.0129 -8.67645 0.000765308 1 
110 1 -3.34104 12.9021 -6.08091 0.0172377 1 
111 1 -1.25368 14.8209 -6.42734 0.0121579 1 
112 1 -3.99606 15.6293 -6.59945 0.00388069 1 
113 1 -1.89958 17.5538 -6.94639 0.00219627 1 
114 1 -2.40406 16.4322 -4.36017 0.0581829 1 
115 1 -0.289746 18.3425 -4.70264 0.0219973 1 
116 1 -3.03599 19.1595 -4.85633 0.0399349 1 
117 1 -0.918426 21.0976 -5.25295 0.0147461 1 
118 1 -1.39466 19.986 -2.70213 0.148166 1 
119 1 -2.00235 22.7484 -3.20977 0.11379 1 
120 1 0.0456152 24.6618 -3.52027 0.105491 1 
122 1 -1.09997 26.3222 -1.61806 6.52556 5 
123 1 42.559 0.339976 -10.8944 0.000452187 1 
124 1 39.8145 1.16562 -11.0419 0.000331482 1 
125 1 41.9165 3.08442 -11.4066 0.000303178 1 
126 1 41.4311 1.96694 -8.83109 0.00170622 1 
127 1 43.5347 3.88415 -9.18087 0.00171617 1 
128 1 40.7886 4.70757 -9.33705 0.00100972 1 
129 1 42.8892 6.62145 -9.69721 0.000501664 1 
130 1 42.409 5.5006 -7.10935 0.00357699 1 
131 1 44.5061 7.41106 -7.46596 0.00208581 1 
132 1 41.7607 8.23303 -7.63778 0.00213235 1 
133 1 43.8565 10.1626 -7.99121 0.00106922 1 
134 1 43.3831 9.02872 -5.42687 0.00951482 1 
135 1 45.4688 10.9628 -5.76669 0.00423377 1 
136 1 42.7133 11.7892 -5.92416 0.0160072 1 
137 1 44.8186 13.7041 -6.27348 0.00637111 1 
138 1 44.3315 12.5608 -3.71089 0.0667982 1 
139 1 46.3755 14.5054 -4.00502 0.0664966 1 
140 1 43.6724 15.3146 -4.21016 0.0787781 1 
141 1 45.7776 17.2398 -4.50718 0.0356299 1 
142 1 45.1575 16.1541 -1.83903 5.42848 5 
143 1 -3.54826 18.0245 -2.18871 3.78657 5 
144 1 44.6947 18.8672 -2.40757 0.480811 5 
145 1 -4.13634 20.8353 -2.84328 0.0843869 1 
149 1 -3.13079 24.3256 -1.22841 5.49455 5 
150 1 36.5831 0.878702 -8.59065 0.00379934 1 
151 1 38.6848 2.79536 -8.9692 0.00199731 1 
152 1 38.1987 1.69144 -6.40371 0.0251101 1 
153 1 40.3064 3.60318 -6.75942 0.0098999 1 
154 1 37.5521 4.42032 -6.87094 0.00504448 1 
155 1 39.6567 6.32423 -7.26481 0.00362597 1 
156 1 39.1683 5.23299 -4.66292 0.0508004 1 
157 1 41.2731 7.10023 -5.04637 0.0190502 1 
158 1 38.5164 7.92396 -5.19146 0.0209067 1 
159 1 40.633 9.83813 -5.59976 0.0162037 1 
160 1 40.1175 8.7193 -3.02279 0.176878 1 
161 1 42.2509 10.6236 -3.38314 0.039659 1 
162 1 39.506 11.4273 -3.59032 0.255428 1 
163 1 41.5282 13.4152 -3.85027 0.472683 1 
164 1 41.0816 12.1912 -1.38256 6.8029 5 
165 1 43.134 14.0793 -1.73257 6.55359 5 
166 1 40.4516 15.0706 -1.23879 11.6462 5 
167 1 42.5069 16.9753 -2.15733 2.33135 5 
169 1 33.3748 0.600763 -6.10967 0.0119812 1 
170 1 35.4583 2.50884 -6.47101 0.0162169 1 
171 1 34.971 1.42408 -3.81196 0.181125 1 
172 1 37.0702 3.3193 -4.25174 0.0632776 1 
173 1 34.3551 4.15025 -4.35774 0.0390693 1 
174 1 36.4195 6.03049 -4.74731 0.0467792 1 
175 1 35.9445 4.95809 -2.00224 1.04308 1 
176 1 37.9755 6.8322 -2.51298 5.42914 5 
177 1 35.3006 7.72154 -2.69685 6.28872 5 
178 1 37.4321 9.55005 -3.11127 7.12917 5 
181 1 36.3451 11.1545 -1.18219 9.85667 5 
182 1 38.4341 13.0531 -1.70417 7.77647 5 
183 1 32.2502 2.25799 -4.05265 0.121535 1 
184 1 31.7645 1.14311 -1.61806 6.52556 5 
185 1 33.8221 3.12469 -1.72429 0.645544 1 
186 1 31.0547 3.8675 -1.84169 6.52178 5 
187 1 33.2149 5.75196 -2.28136 0.777586 5 
190 1 28.8898 2.04042 -1.16686 11.6837 5 
208 1 0.190151 18.1664 -14.2242 6.73617e-05 1 
218 1 46.5928 8.04277 -14.7066 1.98672e-05 1 
222 1 -3.34754 11.5861 -12.9917 3.73122e-05 1 
223 1 -1.25568 13.507 -13.3466 5.5518e-05 1 
224 1 -3.99188 14.3282 -13.508 5.64724e-05 1 
225 1 -1.90021 16.248 -13.8637 6.37611e-05 1 
226 1 -2.38065 15.1305 -11.2691 0.00018567 1 
227 1 -0.290717 17.0496 -11.625 0.000258695 1 
228 1 -3.02571 17.8701 -11.7879 9.34792e-05 1 
229 1 -0.936452 19.7888 -12.1476 8.02665e-05 1 
230 1 -1.41602 18.6708 -9.54686 0.000227002 1 
231 1 -2.06239 21.4108 -10.073 0.000287924 1 
232 1 0.0246589 23.3331 -10.4377 0.000324773 1 
233 1 -0.455094 22.2164 -7.84111 0.00130733 1 
234 1 -1.09809 24.9657 -8.35844 0.00101773 1 
235 1 -0.131262 28.5193 -6.62329 0.00682559 1 
241 1 42.4004 4.20331 -13.9903 8.17886e-05 1 
242 1 44.4978 6.12279 -14.3496 5.3714e-05 1 
243 1 41.7558 6.94444 -14.5076 6.60413e-05 1 
244 1 43.8529 8.86445 -14.8676 4.22899e-05 1 
245 1 43.3709 7.74345 -12.2819 0.000120111 1 
246 1 45.4666 9.66432 -12.6375 4.05547e-05 1 
247 1 42.7259 10.4857 -12.8 0.000111852 1 
248 1 44.822 12.4073 -13.1544 5.17303e-05 1 
249 1 44.3406 11.2858 -10.5703 0.000148807 1 
250 1 46.435 13.209 -10.9193 0.000141875 1 
251 1 43.6956 14.0291 -11.0856 0.000108281 1 
252 1 45.7906 15.9503 -11.4353 0.000130564 1 
253 1 45.3078 14.8299 -8.84916 0.00054227 1 
254 1 -3.50664 16.7514 -9.19216 0.000328113 1 
255 1 44.6655 17.5703 -9.36341 0.000464641 1 
256 1 -4.15109 19.4906 -9.71345 0.000218112 1 
257 1 -4.63348 18.3685 -7.11352 0.00169376 1 
258 1 -2.54109 20.2875 -7.4717 0.0030523 1 
259 1 -5.27588 21.1101 -7.64482 0.00133232 1 
260 1 -3.18563 23.0369 -8.00686 0.00155149 1 
261 1 -3.65245 21.9164 -5.42309 0.0108699 1 
262 1 -1.57683 23.8628 -5.77241 0.0100879 1 
263 1 -4.31774 24.668 -5.9523 0.0159879 1 
264 1 -2.22488 26.6007 -6.28301 0.0182326 1 
265 1 -2.73491 25.5006 -3.71675 0.354472 1 
266 1 -0.614305 27.4371 -4.05265 0.121535 1 
267 1 -3.36783 28.1978 -4.09946 0.283502 1 
268 1 -1.26405 30.1305 -4.51449 0.0224047 1 
269 1 -1.80974 29.0466 -1.84169 6.52178 5 
270 1 -2.37254 31.7349 -2.46391 0.728304 5 
271 1 -0.273278 33.7527 -2.85659 0.294815 1 
275 1 38.2028 0.365486 -13.257 0.000113653 1 
276 1 40.3013 2.28429 -13.6264 8.85427e-05 1 
277 1 37.5596 3.10773 -13.7731 8.06064e-05 1 
278 1 39.6575 5.02556 -14.1427 6.48264e-05 1 
279 1 39.1716 3.908 -11.5542 0.000254352 1 
280 1 41.2722 5.82459 -11.9217 0.000198991 1 
281 1 38.5272 6.64631 -12.0708 0.000191557 1 
282 1 40.6272 8.56482 -12.4402 0.000185731 1 
283 1 40.1422 7.44271 -9.85502 0.000683199 1 
284 1 42.2432 9.36219 -10.2181 0.000374515 1 
285 1 39.4974 10.1833 -10.3768 0.000589356 1 
286 1 41.5981 12.1064 -10.7361 0.000328594 1 
287 1 41.1143 10.9798 -8.16152 0.00238286 1 
288 1 43.2113 12.9053 -8.50604 0.000399813 1 
289 1 40.4696 13.7282 -8.67546 0.00116308 1 
290 1 42.5685 15.6508 -9.01593 0.000981798 1 
291 1 42.0777 14.5242 -6.44152 0.011623 1 
292 1 44.18 16.447 -6.7777 0.0037619 1 
293 1 41.4407 17.2584 -6.92627 0.0124951 1 
294 1 43.5407 19.1866 -7.2971 0.00198681 1 
295 1 43.0672 18.0616 -4.71588 0.0376888 1 
296 1 -5.75757 19.985 -5.04155 0.0144055 1 
297 1 42.4195 20.8071 -5.24447 0.00508989 1 
298 1 -6.4057 22.7358 -5.59206 0.00782643 1 
299 1 44.0394 21.6315 -2.99648 0.0410562 1 
300 1 -4.78345 23.5383 -3.40296 0.0807137 1 
301 1 43.3524 24.3656 -3.52608 0.0656344 1 
302 1 -5.43122 26.311 -3.82351 0.350461 1 
303 1 -5.92633 25.0997 -1.39154 6.36884 5 
304 1 -3.97464 27.2195 -1.16686 11.6837 5 
305 1 -6.73828 27.8273 -1.82788 4.48396 5 
306 1 -4.58592 29.8285 -2.10154 1.44878 5 
308 1 35.4643 1.19006 -13.4021 0.000124857 1 
309 1 37.0724 1.99165 -11.1808 0.000452544 1 
310 1 34.3359 2.81584 -11.3195 0.0003403 1 
311 1 36.4293 4.7304 -11.6941 0.00028595 1 
312 1 35.9424 3.61687 -9.08974 0.00178903 1 
313 1 38.0399 5.52908 -9.47596 0.00081031 1 
314 1 35.299 6.35171 -9.61289 0.000630246 1 
315 1 37.3954 8.26384 -9.99967 0.000920358 1 
316 1 36.9064 7.14221 -7.39177 0.00513447 1 
317 1 39.0099 9.054 -7.794 0.00298332 1 
318 1 36.2632 9.88374 -7.94115 0.00312806 1 
319 1 38.3668 11.8025 -8.3217 0.00269588 1 
320 1 37.8784 10.6591 -5.75118 0.0266015 1 
321 1 39.9775 12.6008 -6.11448 0.0225597 1 
322 1 37.254 13.4409 -6.27425 0.020748 1 
323 1 39.3475 15.3559 -6.60994 0.0143785 1 
324 1 38.8734 14.2866 -4.0269 0.503413 1 
325 1 40.9516 16.1246 -4.30242 0.29914 1 
326 1 38.2365 16.9672 -4.51449 0.0444563 1 
327 1 40.319 18.8606 -4.86792 0.0238439 1 
328 1 39.8394 17.7226 -2.19794 6.63563 5 
329 1 41.962 19.6618 -2.69684 0.162977 1 
330 1 39.188 20.487 -2.88324 0.114641 1 
331 1 41.3035 22.4376 -3.19223 0.0544569 1 
334 1 40.1222 24.043 -1.12165 0.742771 1 
335 1 42.1868 25.9568 -1.33575 2.32455 5 
336 1 32.246 0.899116 -10.9532 0.000285033 1 
337 1 33.8525 1.70509 -8.71602 0.00145667 1 
338 1 31.1215 2.52897 -8.86807 0.00208705 1 
339 1 33.2089 4.44213 -9.23202 0.000752146 1 
340 1 32.7332 3.34021 -6.62329 0.00682559 1 
341 1 34.8163 5.24262 -6.9944 0.00278482 1 
342 1 32.0817 6.06363 -7.13593 0.00278467 1 
343 1 34.1679 7.97196 -7.5345 0.0030427 1 
344 1 33.6954 6.86768 -4.89761 0.0199408 1 
345 1 35.7838 8.76956 -5.33544 0.0112564 1 
346 1 33.0493 9.60962 -5.47209 0.0102693 1 
347 1 35.127 11.509 -5.89005 0.0289509 1 
348 1 34.6838 10.4038 -3.24887 0.231138 1 
349 1 36.755 12.3027 -3.78613 0.19529 1 
350 1 33.9835 13.1813 -3.8954 0.293274 1 
351 1 36.1402 15.0942 -4.23196 0.16239 1 
352 1 35.5605 13.9708 -1.82873 6.96192 5 
353 1 37.7083 15.8318 -1.81164 7.01262 5 
354 1 34.9803 16.7379 -2.12697 5.97867 5 
355 1 37.1582 18.5315 -2.45196 2.15693 5 
359 1 29.0316 0.606196 -8.52144 0.0012463 1 
360 1 30.6396 1.42158 -6.28301 0.0182326 1 
361 1 27.9055 2.23139 -6.42734 0.0121579 1 
362 1 29.992 4.13961 -6.75505 0.0198761 1 
363 1 29.4966 3.01869 -4.09946 0.283502 1 
364 1 31.6004 4.95138 -4.51449 0.0224047 1 
365 1 28.8694 5.75292 -4.70264 0.0219973 1 
366 1 30.9661 7.69178 -5.04855 0.0250227 1 
367 1 30.4919 6.55574 -2.46391 0.728304 5 
368 1 32.5912 8.57359 -2.85659 0.294815 1 
369 1 29.8538 9.36086 -2.98186 0.132483 1 
370 1 31.9101 11.2495 -3.41007 0.145237 1 
372 1 33.5429 12.1511 -1.39964 6.57638 5 
373 1 30.8231 12.8859 -1.20796 4.8176 5 
374 1 32.8895 14.8908 -1.5673 1.94565 5 
375 1 25.8181 0.312522 -6.08091 0.0172377 1 
376 1 27.4332 1.13185 -3.82351 0.350461 1 
377 1 24.627 1.91583 -4.00502 0.0664966 1 
378 1 26.7551 3.84269 -4.36017 0.0581829 1 
379 1 26.1262 2.64819 -1.82788 4.48396 5 
380 1 28.2786 4.64943 -2.10154 1.44878 5 
381 1 25.6109 5.43498 -2.18871 3.78657 5 
382 1 27.7645 7.39648 -2.70213 0.148166 1 
386 1 24.1436 0.77768 -1.33575 2.32455 5 
387 1 21.3854 1.48978 -1.73257 6.55359 5 
388 1 23.4089 3.56457 -1.83903 5.42848 5 
427 1 -0.454929 20.9075 -14.745 3.85975e-05 1 
429 1 -0.135629 27.1931 -13.5508 9.93639e-05 1 
450 1 -4.6367 17.0694 -14.0258 4.19079e-05 1 
451 1 -2.54538 18.9886 -14.3834 3.43523e-05 1 
452 1 -5.28195 19.8106 -14.5449 2.3252e-05 1 
453 1 -3.19053 21.7303 -14.9033 2.29692e-05 1 
454 1 -3.67136 20.6109 -12.3093 5.443e-05 1 
455 1 -1.58189 22.5309 -12.6696 7.1409e-05 1 
456 1 -4.31653 23.3537 -12.8294 3.84385e-05 1 
457 1 -2.22609 25.2743 -13.1881 6.51346e-05 1 
458 1 -2.70712 24.1567 -10.5949 0.000182846 1 
459 1 -0.618476 26.0782 -10.9532 0.000285033 1 
460 1 -3.35145 26.9002 -11.1095 0.000236693 1 
461 1 -1.26249 28.8183 -11.469 0.00032563 1 
462 1 -1.74297 27.7081 -8.86807 0.00208705 1 
463 1 -2.38898 30.4386 -9.37871 0.0021419 1 
464 1 -0.302416 32.3546 -9.75698 0.000739528 1 
465 1 -0.782744 31.2427 -7.13593 0.00278467 1 
466 1 -1.42972 33.9785 -7.67901 0.00303029 1 
467 1 0.184812 34.7887 -5.47209 0.0102693 1 
468 1 -0.485502 37.5389 -6.00342 0.0366326 1 
484 1 42.0814 13.2287 -13.3167 0.000100157 1 
485 1 44.1775 15.1494 -13.6709 4.8125e-05 1 
486 1 41.4372 15.9709 -13.8325 7.26374e-05 1 
487 1 43.5327 17.8908 -14.1883 3.08172e-05 1 
488 1 43.0516 16.7711 -11.6005 0.000102002 1 
489 1 45.1456 18.6909 -11.9536 7.83402e-05 1 
490 1 42.4065 19.5115 -12.118 5.68407e-05 1 
491 1 44.4999 21.4326 -12.4736 3.76217e-05 1 
492 1 44.02 20.3109 -9.88463 0.00018102 1 
493 1 -4.79712 22.2333 -10.2379 0.000147739 1 
494 1 43.3737 23.0548 -10.4051 0.000127639 1 
495 1 -5.44225 24.9783 -10.756 0.000145997 1 
496 1 -5.92531 23.8588 -8.17069 0.00152087 1 
497 1 -3.83283 25.7853 -8.52144 0.0012463 1 
498 1 -6.56744 26.6025 -8.67645 0.000765308 1 
499 1 -4.47611 28.5243 -9.02442 0.00149707 1 
500 1 -4.95899 27.4105 -6.42734 0.0121579 1 
501 1 -2.87244 29.3187 -6.75505 0.0198761 1 
502 1 -5.60488 30.1434 -6.94639 0.00219627 1 
503 1 -3.50969 32.0585 -7.30391 0.00228981 1 
504 1 -3.99505 30.932 -4.70264 0.0219973 1 
505 1 -1.89839 32.8709 -5.04855 0.0250227 1 
506 1 -4.62373 33.6871 -5.25295 0.0147461 1 
507 1 -2.55418 35.6134 -5.61257 0.011494 1 
508 1 -3.01064 34.54 -2.98186 0.132483 1 
509 1 -0.954389 36.4287 -3.41007 0.145237 1 
510 1 -3.65969 37.2514 -3.52027 0.105491 1 
511 1 9.07457 0.29639 -1.20796 4.8176 5 
519 1 36.9158 5.84802 -14.2906 6.82626e-05 1 
520 1 39.0131 7.76633 -14.6607 6.21069e-05 1 
521 1 36.2716 8.58903 -14.8104 5.98216e-05 1 
523 1 37.8829 9.38683 -12.5913 0.000193051 1 
524 1 39.9827 11.3073 -12.9585 0.000162638 1 
525 1 37.2393 12.1305 -13.1106 0.000149689 1 
526 1 39.339 14.0508 -13.4746 0.000121117 1 
527 1 38.8537 12.9295 -10.8944 0.000452187 1 
528 1 40.9545 14.8509 -11.2496 0.000270391 1 
529 1 38.2112 15.674 -11.4066 0.000303178 1 
530 1 40.3108 17.5924 -11.7637 0.000211933 1 
531 1 39.8294 16.4737 -9.18087 0.00171617 1 
532 1 41.9254 18.3882 -9.52773 0.000771239 1 
533 1 39.1839 19.211 -9.69721 0.000501664 1 
534 1 41.28 21.1308 -10.0519 0.000171418 1 
535 1 40.8008 20.0006 -7.46596 0.00208581 1 
536 1 42.8933 21.9309 -7.82313 0.000599041 1 
537 1 40.1512 22.7522 -7.99121 0.00106922 1 
538 1 42.2497 24.6784 -8.3348 0.00140705 1 
539 1 41.7635 23.5524 -5.76669 0.00423377 1 
540 1 -7.04635 25.4916 -6.08091 0.0172377 1 
541 1 41.1133 26.2937 -6.27348 0.00637111 1 
542 1 -7.70137 28.2189 -6.59945 0.00388069 1 
543 1 42.6702 27.0949 -4.00502 0.0664966 1 
544 1 -6.10937 29.0218 -4.36017 0.0581829 1 
545 1 42.0723 29.8294 -4.50718 0.0356299 1 
546 1 -6.7413 31.749 -4.85633 0.0399349 1 
547 1 -7.25357 30.6141 -2.18871 3.78657 5 
548 1 -5.09997 32.5756 -2.70213 0.148166 1 
549 1 -7.84165 33.4248 -2.84328 0.0843869 1 
550 1 -5.70766 35.338 -3.20977 0.11379 1 
553 1 -6.8361 36.9152 -1.22841 5.49455 5 
557 1 32.7288 2.014 -13.5508 9.93639e-05 1 
558 1 34.8209 3.93104 -13.9191 9.11937e-05 1 
559 1 32.0846 4.75431 -14.0694 9.02851e-05 1 
560 1 34.1767 6.67129 -14.4389 7.33288e-05 1 
561 1 33.6918 5.55411 -11.8391 0.000213672 1 
562 1 35.7852 7.46922 -12.2158 0.000197016 1 
563 1 33.0465 8.29338 -12.3623 0.000221962 1 
564 1 35.1408 10.2111 -12.7385 0.00019068 1 
565 1 34.653 9.0904 -10.1431 0.000807324 1 
566 1 36.7517 11.0085 -10.5264 0.00062091 1 
567 1 34.0095 11.8365 -10.6669 0.000468169 1 
568 1 36.1092 13.7552 -11.0419 0.000331482 1 
569 1 35.6216 12.6361 -8.46255 0.0019603 1 
570 1 37.7258 14.5565 -8.83109 0.00170622 1 
571 1 34.9795 15.3849 -8.9692 0.00199731 1 
572 1 37.0833 17.2971 -9.33705 0.00100972 1 
573 1 36.6011 16.1927 -6.75942 0.0098999 1 
574 1 38.7037 18.0902 -7.10935 0.00357699 1 
575 1 35.9514 18.9138 -7.26481 0.00362597 1 
576 1 38.0554 20.8226 -7.63778 0.00213235 1 
577 1 37.5678 19.6898 -5.04637 0.0190502 1 
578 1 39.6778 21.6183 -5.42687 0.00951482 1 
579 1 36.9277 22.4277 -5.59976 0.0162037 1 
580 1 39.008 24.3787 -5.92416 0.0160071 1 
581 1 38.5456 23.2131 -3.38314 0.039659 1 
582 1 40.6262 25.1503 -3.71089 0.0667982 1 
583 1 37.8229 26.0048 -3.85027 0.472683 1 
584 1 39.9671 27.9042 -4.21016 0.0787781 1 
585 1 39.4287 26.6689 -1.73257 6.55359 5 
586 1 41.4522 28.7437 -1.83903 5.42848 5 
587 1 38.8016 29.5648 -2.15733 2.33135 5 
588 1 40.9894 31.4568 -2.40757 0.480811 5 
592 1 27.9035 0.917405 -13.3466 5.5518e-05 1 
593 1 29.9941 2.83672 -13.7052 7.43517e-05 1 
594 1 29.513 1.7211 -11.1095 0.000236693 1 
595 1 31.602 3.63919 -11.469 0.00032563 1 
596 1 28.8684 4.46002 -11.625 0.000258694 1 
597 1 30.9566 6.37643 -11.9888 0.000342542 1 
598 1 30.4755 5.25953 -9.37871 0.0021419 1 
599 1 32.5621 7.17545 -9.75698 0.000739528 1 
600 1 29.8298 7.99893 -9.91173 0.000387701 1 
601 1 31.9164 9.91745 -10.2864 0.000673809 1 
602 1 31.4348 8.79936 -7.67901 0.00303029 1 
603 1 33.5205 10.7192 -8.07521 0.00268012 1 
604 1 30.7867 11.5485 -8.21066 0.00272353 1 
605 1 32.8778 13.4683 -8.59065 0.00379934 1 
606 1 32.379 12.3598 -6.00342 0.0366326 1 
607 1 34.4934 14.281 -6.40371 0.0251101 1 
608 1 31.753 15.0984 -6.47101 0.0162169 1 
609 1 33.8468 17.0099 -6.87094 0.00504448 1 
610 1 33.3649 15.9089 -4.25174 0.0632776 1 
611 1 35.463 17.8225 -4.66292 0.0508004 1 
612 1 32.7142 18.62 -4.74731 0.0467792 1 
613 1 34.8111 20.5135 -5.19146 0.0209067 1 
614 1 34.2702 19.4218 -2.51298 5.42914 5 
615 1 36.4122 21.3089 -3.02279 0.176878 1 
616 1 33.7268 22.1396 -3.11127 7.12917 5 
617 1 35.8007 24.0169 -3.59032 0.255428 1 
619 1 37.3763 24.7808 -1.38256 6.8029 5 
620 1 34.7287 25.6426 -1.70417 7.77647 5 
621 1 36.7463 27.6602 -1.23879 11.6462 5 
622 1 24.6864 0.61943 -10.9193 0.000141875 1 
623 1 26.7785 2.54091 -11.2691 0.00018567 1 
624 1 26.297 1.42339 -8.67645 0.000765308 1 
625 1 28.3884 3.34518 -9.02442 0.00149707 1 
626 1 25.6525 4.16181 -9.19216 0.000328113 1 
627 1 27.7431 6.08122 -9.54686 0.000227002 1 
628 1 27.2596 4.96427 -6.94639 0.00219627 1 
629 1 29.3548 6.87937 -7.30391 0.00228981 1 
630 1 26.6181 7.69794 -7.4717 0.0030523 1 
631 1 28.7041 9.6268 -7.84111 0.00130733 1 
632 1 28.2407 8.508 -5.25295 0.0147461 1 
633 1 30.3103 10.4343 -5.61257 0.011494 1 
634 1 27.5823 11.2733 -5.77241 0.0100879 1 
635 1 29.6695 13.1903 -6.10967 0.0119812 1 
636 1 29.2048 12.0722 -3.52027 0.105491 1 
637 1 31.2657 14.0136 -3.81196 0.181125 1 
638 1 28.5449 14.8475 -4.05265 0.121535 1 
639 1 30.6498 16.7398 -4.35774 0.0390693 1 
640 1 30.1168 15.7142 -1.72429 0.645544 1 
641 1 32.2392 17.5476 -2.00224 1.04308 1 
642 1 29.5096 18.3415 -2.28136 0.777586 5 
643 1 31.5953 20.3111 -2.69685 6.28872 5 
646 1 32.6398 23.7441 -1.18219 9.85667 5 
647 1 21.4627 0.315736 -8.50604 0.000399813 1 
648 1 23.5592 2.24039 -8.84916 0.00054227 1 
649 1 23.0701 1.11457 -6.27348 0.00637111 1 
650 1 25.1631 3.03977 -6.59945 0.00388069 1 
651 1 22.4314 3.85749 -6.7777 0.0037619 1 
652 1 24.5257 5.77897 -7.11352 0.00169376 1 
653 1 24.029 4.65024 -4.50718 0.0356299 1 
654 1 26.1232 6.56993 -4.85633 0.0399349 1 
655 1 23.4016 7.39546 -5.04155 0.0144055 1 
656 1 25.5067 9.32686 -5.42309 0.0108699 1 
657 1 25.0228 8.24571 -2.84328 0.0843869 1 
658 1 27.1568 10.1589 -3.20977 0.11379 1 
659 1 24.3757 10.9488 -3.40296 0.0807137 1 
660 1 26.4243 12.911 -3.71675 0.354472 1 
661 1 26.0284 11.7361 -1.22841 5.49455 5 
662 1 28.0592 13.7327 -1.61806 6.52556 5 
663 1 25.1845 14.63 -1.16686 11.6837 5 
664 1 27.3494 16.4571 -1.84169 6.52178 5 
666 1 20.3292 1.93468 -6.44152 0.011623 1 
667 1 19.7796 0.825692 -3.85027 0.472683 1 
668 1 21.9238 2.72509 -4.21016 0.0787781 1 
669 1 19.2031 3.53506 -4.30242 0.29914 1 
670 1 21.3187 5.47205 -4.71588 0.0376888 1 
671 1 20.7584 4.38573 -2.15733 2.33135 5 
672 1 22.9462 6.27764 -2.40757 0.480811 5 
673 1 20.2135 7.07226 -2.69684 0.162977 1 
674 1 22.2909 9.04198 -2.99648 0.0410562 1 
678 1 23.2328 12.5102 -1.39154 6.36884 5 
679 1 17.1248 1.69707 -4.0269 0.503413 1 
680 1 16.6855 0.463536 -1.70417 7.77647 5 
681 1 18.703 2.48104 -1.23879 11.6462 5 
682 1 15.9598 3.2422 -1.81164 7.01262 5 
683 1 18.0909 5.13303 -2.19794 6.63563 5 
686 1 13.812 1.38125 -1.82873 6.96192 5 
757 1 -0.779897 29.9334 -14.0694 9.02851e-05 1 
758 1 -1.4247 32.6737 -14.5898 8.47856e-05 1 
759 1 0.182077 33.4725 -12.3623 0.000221962 1 
760 1 -0.462181 36.2155 -12.8843 0.000172374 1 
791 1 -4.96099 26.0965 -13.3466 5.5518e-05 1 
792 1 -2.87035 28.0158 -13.7052 7.43517e-05 1 
793 1 -5.60552 28.8375 -13.8637 6.37611e-05 1 
794 1 -3.51516 30.756 -14.2242 6.73617e-05 1 
795 1 -3.99603 29.6391 -11.625 0.000258694 1 
796 1 -1.90791 31.5555 -11.9888 0.000342542 1 
797 1 -4.64176 32.3783 -12.1476 8.02665e-05 1 
798 1 -2.55306 34.2968 -12.5134 0.000142671 1 
799 1 -3.03471 33.178 -9.91173 0.000387701 1 
800 1 -0.94809 35.0966 -10.2864 0.000673809 1 
801 1 -3.68065 35.9227 -10.4377 0.000324773 1 
802 1 9.52408 0.0738812 -10.8066 0.000548196 1 
803 1 -2.07774 36.7276 -8.21066 0.00272353 1 
825 1 40.7925 18.7123 -14.3496 5.3714e-05 1 
826 1 42.8875 20.6323 -14.7066 1.98672e-05 1 
827 1 40.1476 21.454 -14.8676 4.22899e-05 1 
829 1 41.7612 22.2539 -12.6375 4.05547e-05 1 
830 1 -7.05285 24.1756 -12.9917 3.73122e-05 1 
831 1 41.1167 24.9969 -13.1544 5.17303e-05 1 
832 1 -7.69718 26.9178 -13.508 5.64724e-05 1 
833 1 42.7297 25.7985 -10.9193 0.000141875 1 
834 1 -6.08596 27.72 -11.2691 0.00018567 1 
835 1 42.0852 28.5398 -11.4353 0.000130564 1 
836 1 -6.73102 30.4596 -11.7879 9.34792e-05 1 
837 1 -7.21195 29.3409 -9.19216 0.000328113 1 
838 1 -5.12133 31.2603 -9.54686 0.000227002 1 
839 1 -7.8564 32.0801 -9.71345 0.000218112 1 
840 1 -5.7677 34.0004 -10.073 0.000287924 1 
841 1 -6.2464 32.8771 -7.4717 0.0030523 1 
842 1 -4.1604 34.8059 -7.84111 0.00130733 1 
843 1 -6.89093 35.6265 -8.00686 0.00155149 1 
844 1 -4.8034 37.5552 -8.35844 0.00101773 1 
845 1 -5.28213 36.4524 -5.77241 0.0100879 1 
863 1 36.596 14.8739 -13.6264 8.85426e-05 1 
864 1 38.6951 16.7929 -13.9903 8.17886e-05 1 
865 1 35.9522 17.6151 -14.1427 6.48264e-05 1 
866 1 38.0505 19.534 -14.5076 6.60413e-05 1 
867 1 37.5669 18.4142 -11.9217 0.000198991 1 
868 1 39.6655 20.333 -12.2819 0.000120111 1 
869 1 36.9219 21.1544 -12.4402 0.000185731 1 
870 1 39.0206 23.0753 -12.8 0.000111852 1 
871 1 38.5379 21.9517 -10.2181 0.000374515 1 
872 1 40.6353 23.8753 -10.5703 0.000148807 1 
873 1 37.8928 24.696 -10.7361 0.000328594 1 
874 1 39.9903 26.6187 -11.0856 0.000108281 1 
875 1 39.506 25.4948 -8.50604 0.000399813 1 
876 1 41.6025 27.4195 -8.84916 0.00054227 1 
877 1 38.8632 28.2404 -9.01593 0.000981798 1 
878 1 40.9602 30.1599 -9.36341 0.000464641 1 
879 1 40.4747 29.0366 -6.7777 0.0037619 1 
880 1 -8.33879 30.9581 -7.11352 0.00169376 1 
881 1 39.8354 31.7762 -7.2971 0.00198681 1 
882 1 -8.98119 33.6997 -7.64482 0.00133232 1 
883 1 -9.46288 32.5746 -5.04155 0.0144055 1 
884 1 -7.35776 34.506 -5.42309 0.0108699 1 
885 1 -10.111 35.3254 -5.59206 0.00782643 1 
886 1 -8.02305 37.2575 -5.9523 0.0159879 1 
887 1 -8.48876 36.1279 -3.40296 0.0807137 1 
888 1 4.67571 0.32148 -3.71675 0.354472 1 
898 1 31.4398 7.49457 -14.5898 8.47856e-05 1 
899 1 33.5323 9.41265 -14.9595 6.72844e-05 1 
902 1 32.4023 11.0363 -12.8843 0.000172374 1 
903 1 34.4975 12.955 -13.257 0.000113653 1 
904 1 31.759 13.7796 -13.4021 0.000124857 1 
905 1 33.8543 15.6973 -13.7731 8.06064e-05 1 
906 1 33.3671 14.5812 -11.1808 0.000452544 1 
907 1 35.4663 16.4976 -11.5542 0.000254352 1 
908 1 32.724 17.32 -11.6941 0.00028595 1 
909 1 34.8219 19.2359 -12.0708 0.000191557 1 
910 1 34.3346 18.1186 -9.47596 0.00081031 1 
911 1 36.4369 20.0323 -9.85502 0.000683199 1 
912 1 33.69 20.8534 -9.99967 0.000920358 1 
913 1 35.7921 22.7729 -10.3768 0.000589356 1 
914 1 35.3046 21.6436 -7.794 0.00298332 1 
915 1 37.409 23.5694 -8.16152 0.00238286 1 
916 1 34.6615 24.3921 -8.3217 0.00269588 1 
917 1 36.7643 26.3177 -8.67546 0.00116308 1 
918 1 36.2722 25.1904 -6.11448 0.0225597 1 
919 1 38.3724 27.1138 -6.44152 0.011623 1 
920 1 35.6422 27.9454 -6.60994 0.0143785 1 
921 1 37.7354 29.848 -6.92627 0.0124951 1 
922 1 37.2463 28.7142 -4.30242 0.29914 1 
923 1 39.3619 30.6512 -4.71588 0.0376888 1 
924 1 36.6137 31.4501 -4.86792 0.0238439 1 
925 1 38.7142 33.3966 -5.24447 0.00508989 1 
926 1 38.2567 32.2514 -2.69684 0.162977 1 
927 1 40.3341 34.2211 -2.99648 0.0410562 1 
928 1 37.5982 35.0271 -3.19223 0.0544569 1 
929 1 39.6471 36.9551 -3.52608 0.0656344 1 
931 1 -9.63164 37.6893 -1.39154 6.36884 5 
936 1 27.259 3.65841 -13.8637 6.37611e-05 1 
937 1 29.3493 5.57684 -14.2242 6.73617e-05 1 
938 1 26.6138 6.39905 -14.3834 3.43523e-05 1 
939 1 28.7042 8.3179 -14.745 3.85975e-05 1 
940 1 28.2227 7.19923 -12.1476 8.02665e-05 1 
941 1 30.3114 9.1177 -12.5134 0.000142671 1 
942 1 27.5773 9.94139 -12.6696 7.1409e-05 1 
943 1 29.667 11.8612 -13.0338 0.000111153 1 
944 1 29.1838 10.7436 -10.4377 0.000324773 1 
945 1 31.2726 12.6634 -10.8066 0.000548196 1 
946 1 28.5407 13.4887 -10.9532 0.000285033 1 
947 1 30.6306 15.4054 -11.3195 0.0003403 1 
948 1 30.1472 14.2946 -8.71602 0.00145667 1 
949 1 32.2371 16.2064 -9.08974 0.00178903 1 
950 1 29.5036 17.0317 -9.23202 0.000752146 1 
951 1 31.5937 18.9413 -9.61289 0.000630246 1 
952 1 31.111 17.8322 -6.9944 0.00278482 1 
953 1 33.2011 19.7318 -7.39177 0.00513448 1 
954 1 30.4626 20.5615 -7.5345 0.0030427 1 
955 1 32.5579 22.4733 -7.94115 0.00312806 1 
956 1 32.0785 21.3591 -5.33544 0.0112564 1 
957 1 34.1731 23.2487 -5.75118 0.0266015 1 
958 1 31.4217 24.0985 -5.89005 0.0289509 1 
959 1 33.5487 26.0305 -6.27425 0.020748 1 
960 1 33.0497 24.8922 -3.78613 0.19529 1 
961 1 35.1681 26.8762 -4.0269 0.503413 1 
962 1 32.4349 27.6838 -4.23196 0.16239 1 
963 1 34.5312 29.5568 -4.51449 0.0444563 1 
964 1 34.003 28.4213 -1.81164 7.01262 5 
965 1 36.1341 30.3121 -2.19794 6.63563 5 
966 1 33.4529 31.1211 -2.45196 2.15693 5 
967 1 35.4827 33.0766 -2.88324 0.114641 1 
971 1 36.4169 36.6326 -1.12165 0.742771 1 
973 1 25.1673 1.73867 -13.508 5.64724e-05 1 
974 1 22.4289 2.55988 -13.6709 4.8125e-05 1 
975 1 24.5225 4.47981 -14.0258 4.19079e-05 1 
976 1 24.042 3.36073 -11.4353 0.000130564 1 
977 1 26.1335 5.28052 -11.7879 9.34792e-05 1 
978 1 23.397 6.10137 -11.9536 7.83402e-05 1 
979 1 25.4878 8.02131 -12.3093 5.443e-05 1 
980 1 25.0081 6.901 -9.71345 0.000218112 1 
981 1 27.0968 8.82125 -10.073 0.000287924 1 
982 1 24.362 9.64378 -10.2379 0.000147739 1 
983 1 26.452 11.5672 -10.5949 0.000182846 1 
984 1 25.9735 10.4474 -8.00686 0.00155149 1 
985 1 28.0611 12.3761 -8.35844 0.00101773 1 
986 1 25.3263 13.1958 -8.52144 0.0012463 1 
987 1 27.4162 15.1185 -8.86807 0.00208705 1 
988 1 26.9343 14.0111 -6.28301 0.0182326 1 
989 1 29.0279 15.9298 -6.62329 0.00682559 1 
990 1 26.2867 16.7292 -6.75505 0.0198761 1 
991 1 28.3764 18.6532 -7.13593 0.00278467 1 
992 1 27.8951 17.5409 -4.51449 0.0224047 1 
993 1 29.9901 19.4572 -4.89761 0.0199408 1 
994 1 27.2608 20.2813 -5.04855 0.0250227 1 
995 1 29.344 22.1992 -5.47209 0.0102693 1 
996 1 28.8859 21.1631 -2.85659 0.294815 1 
997 1 30.9784 22.9934 -3.24887 0.231138 1 
998 1 28.2048 23.8391 -3.41007 0.145237 1 
999 1 30.2782 25.7709 -3.8954 0.293274 1 
1000 1 29.8376 24.7407 -1.39964 6.57638 5 
1001 1 31.8552 26.5604 -1.82873 6.96192 5 
1002 1 29.1841 27.4804 -1.5673 1.94565 5 