ITEM: TIMESTEP
0
ITEM: NUMBER OF ATOMS
3264
ITEM: BOX BOUNDS xy xz yz pp pp ss
0.0000000000000000e+00 5.3238632589999995e+01 8.8731054319999991e+00
0.0000000000000000e+00 4.1142897321000000e+01 0.0000000000000000e+00
-1.0354830442075864e+02 1.1187356984486725e+02 0.0000000000000000e+00
ITEM: ATOMS id type x y z c_csym c_cna 
1 1 42.3819 41.0606 -3.29441 5.46108 5 
2 1 43.4729 38.4856 -0.62756 9.26746 5 
3 1 43.1288 40.9419 -8.79398 0.0347245 1 
4 1 42.7681 40.987 -6.0096 0.448915 1 
5 1 43.9141 38.4147 -5.83374 0.573393 1 
6 1 43.5327 38.4435 -3.2213 9.65431 5 
7 1 43.8652 40.7923 -14.4371 0.000250443 1 
8 1 43.4983 40.8707 -11.606 0.00342427 1 
9 1 38.6676 39.4961 -3.42399 0.195833 1 
10 1 38.5753 39.512 -0.510305 0.433373 1 
11 1 41.0153 38.9747 -1.94465 0.216673 1 
12 1 39.7169 36.8791 -0.551987 0.306233 1 
13 1 39.4073 39.3537 -9.19659 0.00622281 1 
14 1 39.0232 39.4343 -6.34157 0.0282838 1 
15 1 41.6242 38.8563 -7.51458 0.0360663 1 
16 1 41.2355 38.9242 -4.73739 0.137691 1 
17 1 40.1415 36.7746 -6.18082 0.0301664 1 
18 1 39.7763 36.8649 -3.34444 0.259858 1 
19 1 42.3936 36.2793 -4.58146 1.62298 5 
20 1 42.2093 36.2372 -1.92447 7.35243 2 
21 1 40.903 34.2035 -3.29441 5.46107 5 
22 1 40.8628 34.2165 -0.57162 4.91652 5 
23 1 41.9941 31.6284 -0.627526 9.2675 5 
24 1 40.1638 39.1961 -14.8731 9.97822e-05 1 
25 1 39.7889 39.2745 -12.0362 0.000884649 1 
26 1 42.3846 38.7178 -13.132 0.00058466 1 
27 1 42.0104 38.7925 -10.3112 0.00500916 1 
28 1 40.902 36.6414 -11.8253 0.00123147 1 
29 1 40.522 36.7122 -9.00267 0.00831166 1 
30 1 43.1345 36.1671 -10.0861 0.0106707 1 
31 1 42.7697 36.2398 -7.30121 0.109325 1 
32 1 41.65 34.0848 -8.79398 0.0347249 1 
33 1 41.2893 34.1299 -6.00959 0.448909 1 
34 1 43.8984 33.6518 -6.93462 0.236539 1 
35 1 43.6422 33.861 -3.82048 6.86667 5 
36 1 42.4352 31.5576 -5.83372 0.573306 1 
37 1 42.0539 31.5864 -3.22134 9.65405 5 
38 1 43.4612 29.2663 -2.13194 8.5408 5 
45 1 41.2746 36.5649 -14.6566 0.000140085 1 
47 1 43.4982 36.0891 -12.9099 0.000848315 1 
48 1 42.3863 33.9352 -14.4371 0.000250445 1 
49 1 42.0194 34.0136 -11.606 0.00342425 1 
50 1 43.134 31.3891 -11.3831 0.00391644 1 
51 1 42.7784 31.4728 -8.57503 0.0438542 1 
52 1 43.8818 28.848 -8.27462 0.0342017 1 
53 1 43.531 28.9606 -5.37325 0.517885 5 
65 1 43.4966 31.3056 -14.2167 0.000276069 1 
85 1 34.2859 40.509 -6.93462 0.236539 1 
86 1 34.0296 40.7181 -3.82048 6.86667 5 
87 1 36.4809 40.0432 -5.15756 0.0990861 1 
88 1 36.1854 40.0662 -2.08886 1.03911 5 
89 1 35.0681 38.0021 -3.88172 1.69307 5 
90 1 37.1582 37.4083 -1.96326 1.70177 5 
91 1 34.9947 40.3179 -12.6796 0.00157305 1 
92 1 34.635 40.4066 -9.8208 0.020316 1 
93 1 37.2049 39.8399 -10.926 0.00172415 1 
94 1 36.8378 39.9314 -8.05735 0.00726043 1 
95 1 35.739 37.7704 -9.61324 0.00798954 1 
96 1 35.3937 37.8681 -6.74962 0.0645688 1 
97 1 37.9354 37.2832 -7.85947 0.0117104 1 
98 1 37.5721 37.3705 -4.97005 0.0684321 1 
99 1 36.4609 35.2276 -6.50487 0.0237673 1 
100 1 36.0983 35.2948 -3.56943 0.362708 1 
101 1 38.6462 34.7162 -4.82575 0.0692784 1 
102 1 38.3783 34.7827 -1.94551 0.391863 1 
103 1 37.1887 32.6389 -3.42399 0.195831 1 
104 1 37.0965 32.6549 -0.510306 0.433369 1 
105 1 39.5365 32.1176 -1.94465 0.216673 1 
106 1 38.2381 30.022 -0.551987 0.306231 1 
110 1 37.5761 39.7562 -13.7755 0.000245242 1 
112 1 36.1005 37.6847 -12.4634 0.000745841 1 
113 1 38.6836 37.1227 -13.5612 0.000252176 1 
114 1 38.3089 37.202 -10.7181 0.00211454 1 
115 1 37.2038 35.0511 -12.2443 0.000827249 1 
116 1 36.8317 35.1343 -9.38727 0.00499009 1 
117 1 39.417 34.5666 -10.5127 0.0024638 1 
118 1 39.0413 34.6385 -7.67347 0.0113015 1 
119 1 37.9284 32.4965 -9.19659 0.00622279 1 
120 1 37.5443 32.5772 -6.34157 0.0282841 1 
121 1 40.1454 31.9991 -7.51458 0.0360652 1 
122 1 39.7567 32.0671 -4.73739 0.137696 1 
123 1 38.6626 29.9175 -6.18082 0.0301657 1 
124 1 38.2974 30.0077 -3.34444 0.259857 1 
125 1 40.9147 29.4222 -4.58146 1.62296 5 
126 1 40.7305 29.38 -1.92447 7.35248 2 
127 1 39.4242 27.3463 -3.29441 5.46108 5 
128 1 39.3839 27.3594 -0.571623 4.91653 5 
129 1 40.5152 24.7713 -0.627568 9.26746 5 
141 1 39.7935 34.4907 -13.3468 0.000339219 1 
142 1 38.685 32.3389 -14.8731 9.97817e-05 1 
143 1 38.3101 32.4174 -12.0362 0.000884653 1 
144 1 40.9057 31.8607 -13.132 0.000584663 1 
145 1 40.5316 31.9354 -10.3112 0.00500919 1 
146 1 39.4231 29.7843 -11.8253 0.00123148 1 
147 1 39.0431 29.855 -9.00267 0.00831165 1 
148 1 41.6557 29.3099 -10.0861 0.0106708 1 
149 1 41.2909 29.3827 -7.30121 0.109325 1 
150 1 40.1711 27.2276 -8.79398 0.0347245 1 
151 1 39.8104 27.2727 -6.0096 0.448915 1 
152 1 42.4195 26.7947 -6.93462 0.23655 1 
153 1 42.1633 27.0038 -3.82048 6.8666 5 
154 1 40.9564 24.7004 -5.83374 0.573411 1 
155 1 40.575 24.7292 -3.22129 9.65436 5 
156 1 43.2018 24.2878 -3.88172 1.69303 5 
157 1 41.9824 22.4092 -2.13194 8.5407 5 
175 1 39.7958 29.7077 -14.6566 0.000140084 1 
177 1 42.0193 29.2319 -12.9099 0.000848317 1 
178 1 40.9075 27.078 -14.4371 0.000250443 1 
179 1 40.5406 27.1564 -11.606 0.00342427 1 
180 1 43.1284 26.6036 -12.6796 0.00157311 1 
181 1 42.7687 26.6923 -9.8208 0.020315 1 
182 1 41.6552 24.532 -11.3831 0.00391637 1 
183 1 41.2995 24.6157 -8.57502 0.0438506 1 
184 1 43.8727 24.0561 -9.61324 0.0079888 1 
185 1 43.5273 24.1538 -6.74962 0.0645754 1 
186 1 42.4029 21.9908 -8.27462 0.0342007 1 
187 1 42.0521 22.1035 -5.37325 0.517896 5 
188 1 43.1358 19.4717 -5.15756 0.099086 1 
189 1 42.8402 19.4948 -2.08886 1.03911 5 
190 1 43.8131 16.8369 -1.96326 1.70176 5 
216 1 42.0177 24.4485 -14.2167 0.000276077 1 
217 1 43.125 21.8167 -13.9932 0.000304795 1 
218 1 42.7598 21.8999 -11.1436 0.00343662 1 
219 1 43.8597 19.2684 -10.926 0.00172414 1 
220 1 43.4926 19.3599 -8.05735 0.0072605 1 
333 1 31.2905 41.0606 -3.29441 5.46107 5 
334 1 29.9239 38.9747 -1.94465 0.216673 1 
335 1 32.3815 38.4856 -0.627526 9.2675 5 
336 1 32.0374 40.9419 -8.79398 0.0347249 1 
337 1 31.6768 40.987 -6.00959 0.448909 1 
338 1 30.5328 38.8563 -7.51458 0.0360652 1 
339 1 30.1442 38.9242 -4.73739 0.137696 1 
340 1 32.8227 38.4147 -5.83372 0.573305 1 
341 1 32.4414 38.4435 -3.22134 9.65405 5 
342 1 31.3022 36.2794 -4.58146 1.62296 5 
343 1 31.118 36.2372 -1.92447 7.35249 2 
344 1 33.8487 36.1235 -2.13194 8.5408 5 
345 1 32.7738 40.7923 -14.4371 0.000250444 1 
346 1 32.4069 40.8707 -11.606 0.00342425 1 
347 1 31.2932 38.7178 -13.132 0.000584662 1 
348 1 30.9191 38.7925 -10.3112 0.00500918 1 
349 1 33.5215 38.2463 -11.3831 0.00391644 1 
350 1 33.1659 38.33 -8.57503 0.0438542 1 
351 1 32.0432 36.1671 -10.0861 0.0106708 1 
352 1 31.6783 36.2398 -7.30121 0.109325 1 
353 1 34.2693 35.7051 -8.27462 0.0342017 1 
354 1 33.9185 35.8178 -5.37325 0.517884 5 
355 1 32.807 33.6518 -6.93462 0.23655 1 
356 1 32.5508 33.861 -3.82048 6.86659 5 
357 1 35.0021 33.186 -5.15756 0.0990867 1 
358 1 34.7066 33.2091 -2.08886 1.03911 5 
359 1 33.5893 31.1449 -3.88172 1.69303 5 
360 1 35.6794 30.5512 -1.96326 1.70178 5 
367 1 33.884 38.1627 -14.2167 0.00027607 1 
369 1 32.4068 36.0891 -12.9099 0.000848316 1 
370 1 34.9913 35.531 -13.9932 0.000304798 1 
371 1 34.6262 35.6142 -11.1436 0.00343658 1 
372 1 33.5158 33.4607 -12.6796 0.00157312 1 
373 1 33.1562 33.5495 -9.8208 0.020315 1 
374 1 35.726 32.9827 -10.926 0.00172416 1 
375 1 35.3589 33.0742 -8.05735 0.00726024 1 
376 1 34.2602 30.9132 -9.61324 0.00798878 1 
377 1 33.9148 31.0109 -6.74962 0.0645756 1 
378 1 36.4566 30.426 -7.85947 0.0117102 1 
379 1 36.0932 30.5133 -4.97005 0.0684324 1 
380 1 34.982 28.3705 -6.50487 0.0237672 1 
381 1 34.6194 28.4377 -3.56943 0.362708 1 
382 1 37.1673 27.8591 -4.82575 0.0692776 1 
383 1 36.8995 27.9256 -1.94551 0.391863 1 
384 1 35.7099 25.7818 -3.42399 0.195833 1 
385 1 35.6176 25.7977 -0.510305 0.433373 1 
386 1 38.0576 25.2604 -1.94465 0.216673 1 
387 1 36.7592 23.1648 -0.551986 0.306233 1 
403 1 36.0973 32.8991 -13.7755 0.000245242 1 
405 1 34.6217 30.8276 -12.4634 0.000745891 1 
406 1 37.2048 30.2656 -13.5612 0.000252179 1 
407 1 36.83 30.3449 -10.7181 0.00211454 1 
408 1 35.725 28.194 -12.2443 0.000827252 1 
409 1 35.3529 28.2771 -9.38727 0.00499007 1 
410 1 37.9381 27.7095 -10.5127 0.00246376 1 
411 1 37.5624 27.7813 -7.67347 0.0113018 1 
412 1 36.4496 25.6394 -9.19659 0.00622282 1 
413 1 36.0655 25.72 -6.34157 0.0282837 1 
414 1 38.6665 25.142 -7.51458 0.0360665 1 
415 1 38.2778 25.2099 -4.73739 0.13769 1 
416 1 37.1838 23.0603 -6.18082 0.0301664 1 
417 1 36.8186 23.1506 -3.34444 0.259858 1 
418 1 39.4359 22.565 -4.58146 1.62298 5 
419 1 39.2516 22.5229 -1.92447 7.35243 2 
420 1 37.9453 20.4892 -3.29441 5.46106 5 
421 1 37.9051 20.5022 -0.57162 4.91652 5 
422 1 39.0364 17.9141 -0.62752 9.2675 5 
446 1 38.3146 27.6335 -13.3468 0.000339227 1 
447 1 37.2061 25.4818 -14.8731 9.97822e-05 1 
448 1 36.8312 25.5602 -12.0362 0.000884648 1 
449 1 39.4269 25.0035 -13.132 0.000584658 1 
450 1 39.0527 25.0782 -10.3112 0.00500916 1 
451 1 37.9443 22.9271 -11.8253 0.00123147 1 
452 1 37.5643 22.9979 -9.00267 0.00831167 1 
453 1 40.1768 22.4528 -10.0861 0.0106707 1 
454 1 39.812 22.5255 -7.30121 0.109326 1 
455 1 38.6923 20.3705 -8.79398 0.034725 1 
456 1 38.3316 20.4156 -6.00959 0.448908 1 
457 1 40.9407 19.9375 -6.93462 0.236538 1 
458 1 40.6845 20.1467 -3.82048 6.86667 5 
459 1 39.4775 17.8433 -5.83372 0.573291 1 
460 1 39.0962 17.8721 -3.22134 9.65401 5 
461 1 41.723 17.4306 -3.88172 1.69307 5 
462 1 40.5035 15.552 -2.13194 8.54081 5 
492 1 38.3169 22.8506 -14.6566 0.000140085 1 
494 1 40.5405 22.3748 -12.9099 0.000848315 1 
495 1 39.4286 20.2209 -14.4371 0.000250445 1 
496 1 39.0617 20.2993 -11.606 0.00342425 1 
497 1 41.6495 19.7464 -12.6796 0.00157304 1 
498 1 41.2899 19.8352 -9.8208 0.0203161 1 
499 1 40.1763 17.6748 -11.3831 0.00391645 1 
500 1 39.8207 17.7585 -8.57503 0.0438547 1 
501 1 42.3939 17.1989 -9.61324 0.00798963 1 
502 1 42.0485 17.2966 -6.74962 0.0645679 1 
503 1 40.9241 15.1337 -8.27462 0.0342018 1 
504 1 40.5733 15.2463 -5.37325 0.517883 5 
505 1 43.1157 14.6562 -6.50487 0.0237673 1 
506 1 42.7531 14.7234 -3.56943 0.362708 1 
507 1 41.6569 12.6146 -5.15756 0.0990867 1 
508 1 41.3614 12.6376 -2.08886 1.03911 5 
509 1 43.8436 12.0675 -3.42399 0.195832 1 
510 1 43.7513 12.0834 -0.510305 0.433371 1 
511 1 42.3342 9.97971 -1.96326 1.70178 5 
549 1 40.5389 17.5913 -14.2167 0.000276069 1 
551 1 42.7554 17.1133 -12.4634 0.000745837 1 
552 1 41.6461 14.9596 -13.9932 0.0003048 1 
553 1 41.281 15.0428 -11.1436 0.00343658 1 
554 1 43.8586 14.4797 -12.2443 0.000827251 1 
555 1 43.4866 14.5628 -9.38727 0.00499008 1 
556 1 42.3809 12.4113 -10.926 0.00172416 1 
557 1 42.0138 12.5028 -8.05735 0.00726021 1 
558 1 43.1114 9.85456 -7.85947 0.0117101 1 
559 1 42.748 9.94187 -4.97005 0.0684326 1 
560 1 43.8221 7.28765 -4.82575 0.069278 1 
561 1 43.5543 7.35415 -1.94551 0.391863 1 
605 1 42.7521 12.3276 -13.7755 0.00024524 1 
606 1 43.8596 9.69414 -13.5612 0.000252177 1 
607 1 43.4848 9.77342 -10.7181 0.00211455 1 
848 1 25.3895 40.0432 -5.15756 0.099086 1 
849 1 25.094 40.0662 -2.08886 1.03911 5 
850 1 27.5762 39.4961 -3.42399 0.195831 1 
851 1 27.4839 39.512 -0.510306 0.43337 1 
852 1 26.0669 37.4083 -1.96326 1.70177 5 
853 1 28.6256 36.8791 -0.551987 0.306232 1 
854 1 26.1135 39.8399 -10.926 0.00172414 1 
855 1 25.7464 39.9314 -8.05735 0.0072605 1 
856 1 28.3159 39.3537 -9.19659 0.00622279 1 
857 1 27.9318 39.4343 -6.34157 0.0282841 1 
858 1 26.844 37.2832 -7.85947 0.0117105 1 
859 1 26.4807 37.3705 -4.97005 0.0684318 1 
860 1 29.0501 36.7746 -6.18082 0.0301656 1 
861 1 28.6849 36.8649 -3.34443 0.259858 1 
862 1 27.5548 34.7162 -4.82575 0.0692776 1 
863 1 27.2869 34.7827 -1.94551 0.391863 1 
864 1 29.8116 34.2035 -3.29441 5.46109 5 
865 1 29.7714 34.2165 -0.571623 4.91653 5 
866 1 28.4451 32.1176 -1.94465 0.216673 1 
867 1 30.9027 31.6284 -0.627569 9.26745 5 
869 1 26.4847 39.7562 -13.7755 0.000245244 1 
870 1 29.0724 39.1961 -14.8731 9.97833e-05 1 
871 1 28.6975 39.2745 -12.0362 0.000884647 1 
872 1 27.5923 37.1227 -13.5612 0.00025218 1 
873 1 27.2175 37.202 -10.7181 0.00211451 1 
874 1 29.8106 36.6414 -11.8253 0.00123146 1 
875 1 29.4306 36.7122 -9.00267 0.00831169 1 
876 1 28.3256 34.5666 -10.5127 0.00246376 1 
877 1 27.9499 34.6385 -7.67347 0.0113018 1 
878 1 30.5586 34.0848 -8.79398 0.0347245 1 
879 1 30.1979 34.1299 -6.0096 0.448916 1 
880 1 29.054 31.9991 -7.51458 0.0360665 1 
881 1 28.6653 32.0671 -4.73739 0.13769 1 
882 1 31.3438 31.5576 -5.83374 0.573414 1 
883 1 30.9625 31.5864 -3.22129 9.65437 5 
884 1 29.8233 29.4222 -4.58146 1.62299 5 
885 1 29.6391 29.38 -1.92447 7.35242 2 
886 1 32.3698 29.2663 -2.13194 8.54069 5 
894 1 30.1833 36.5649 -14.6566 0.000140085 1 
896 1 28.7021 34.4907 -13.3468 0.000339225 1 
897 1 31.2949 33.9352 -14.4371 0.000250444 1 
898 1 30.9281 34.0136 -11.606 0.00342427 1 
899 1 29.8143 31.8607 -13.132 0.000584659 1 
900 1 29.4402 31.9354 -10.3112 0.00500917 1 
901 1 32.0426 31.3891 -11.3831 0.00391637 1 
902 1 31.687 31.4728 -8.57502 0.0438505 1 
903 1 30.5643 29.3099 -10.0861 0.0106707 1 
904 1 30.1995 29.3827 -7.30121 0.109326 1 
905 1 32.7904 28.848 -8.27462 0.0342006 1 
906 1 32.4396 28.9606 -5.37325 0.517897 5 
907 1 31.3282 26.7947 -6.93462 0.236538 1 
908 1 31.0719 27.0038 -3.82048 6.86668 5 
909 1 33.5232 26.3289 -5.15756 0.099086 1 
910 1 33.2277 26.3519 -2.08886 1.0391 5 
911 1 32.1104 24.2878 -3.88172 1.69307 5 
912 1 34.2005 23.694 -1.96326 1.70176 5 
928 1 32.4052 31.3056 -14.2167 0.000276076 1 
930 1 30.9279 29.2319 -12.9099 0.000848315 1 
931 1 33.5125 28.6739 -13.9932 0.000304797 1 
932 1 33.1473 28.7571 -11.1436 0.00343663 1 
933 1 32.037 26.6036 -12.6796 0.00157304 1 
934 1 31.6773 26.6923 -9.8208 0.0203161 1 
935 1 34.2472 26.1256 -10.926 0.00172415 1 
936 1 33.8801 26.2171 -8.05735 0.00726045 1 
937 1 32.7813 24.0561 -9.61324 0.00798964 1 
938 1 32.436 24.1538 -6.74962 0.0645679 1 
939 1 34.9777 23.5689 -7.85947 0.0117104 1 
940 1 34.6144 23.6562 -4.97005 0.0684321 1 
941 1 33.5032 21.5133 -6.50487 0.0237673 1 
942 1 33.1406 21.5805 -3.56943 0.362708 1 
943 1 35.6885 21.0019 -4.82575 0.0692786 1 
944 1 35.4206 21.0684 -1.94551 0.391862 1 
945 1 34.231 18.9246 -3.42399 0.195831 1 
946 1 34.1388 18.9406 -0.510306 0.433369 1 
947 1 36.5788 18.4033 -1.94465 0.216673 1 
948 1 35.2804 16.3077 -0.551987 0.306231 1 
972 1 34.6184 26.0419 -13.7755 0.000245242 1 
974 1 33.1428 23.9704 -12.4634 0.000745836 1 
975 1 35.7259 23.4084 -13.5612 0.000252175 1 
976 1 35.3512 23.4877 -10.7181 0.00211454 1 
977 1 34.2461 21.3368 -12.2443 0.000827249 1 
978 1 33.874 21.42 -9.38727 0.00499009 1 
979 1 36.4593 20.8523 -10.5127 0.0024638 1 
980 1 36.0836 20.9242 -7.67347 0.0113014 1 
981 1 34.9707 18.7822 -9.19659 0.00622278 1 
982 1 34.5866 18.8629 -6.34157 0.0282842 1 
983 1 37.1877 18.2848 -7.51458 0.036065 1 
984 1 36.799 18.3528 -4.73739 0.137697 1 
985 1 35.7049 16.2032 -6.18082 0.0301658 1 
986 1 35.3397 16.2934 -3.34443 0.259857 1 
987 1 37.957 15.7079 -4.58146 1.62296 5 
988 1 37.7728 15.6657 -1.92447 7.35249 2 
989 1 36.4665 13.632 -3.29441 5.46109 5 
990 1 36.4262 13.6451 -0.571623 4.91653 5 
991 1 37.5575 11.057 -0.627566 9.26746 5 
1024 1 36.8358 20.7764 -13.3468 0.000339219 1 
1025 1 35.7273 18.6246 -14.8731 9.97819e-05 1 
1026 1 35.3524 18.7031 -12.0362 0.000884653 1 
1027 1 37.948 18.1464 -13.132 0.000584664 1 
1028 1 37.5739 18.2211 -10.3112 0.00500919 1 
1029 1 36.4654 16.07 -11.8253 0.00123147 1 
1030 1 36.0854 16.1407 -9.00267 0.00831165 1 
1031 1 38.698 15.5956 -10.0861 0.0106708 1 
1032 1 38.3332 15.6684 -7.30121 0.109325 1 
1033 1 37.2134 13.5133 -8.79398 0.0347245 1 
1034 1 36.8527 13.5584 -6.0096 0.448916 1 
1035 1 39.4618 13.0804 -6.93462 0.236549 1 
1036 1 39.2056 13.2896 -3.82048 6.8666 5 
1037 1 37.9987 10.9861 -5.83374 0.573408 1 
1038 1 37.6173 11.0149 -3.2213 9.65435 5 
1039 1 40.2441 10.5735 -3.88172 1.69303 5 
1040 1 39.0247 8.69489 -2.13194 8.5407 5 
1080 1 36.8381 15.9934 -14.6566 0.000140084 1 
1082 1 39.0616 15.5176 -12.9099 0.000848317 1 
1083 1 37.9498 13.3637 -14.4371 0.000250443 1 
1084 1 37.5829 13.4421 -11.606 0.00342427 1 
1085 1 40.1707 12.8893 -12.6796 0.00157311 1 
1086 1 39.811 12.978 -9.8208 0.020315 1 
1087 1 38.6975 10.8177 -11.3831 0.00391638 1 
1088 1 38.3418 10.9014 -8.57502 0.0438507 1 
1089 1 40.915 10.3418 -9.61324 0.00798882 1 
1090 1 40.5696 10.4395 -6.74962 0.0645752 1 
1091 1 39.4452 8.27654 -8.27462 0.0342007 1 
1092 1 39.0944 8.38917 -5.37325 0.517896 5 
1093 1 41.6369 7.79901 -6.50487 0.0237672 1 
1094 1 41.2742 7.86622 -3.56943 0.362708 1 
1095 1 40.1781 5.75744 -5.15756 0.0990861 1 
1096 1 39.8825 5.78046 -2.08886 1.03911 5 
1097 1 42.3647 5.21031 -3.42399 0.195832 1 
1098 1 42.2724 5.22626 -0.510306 0.433371 1 
1099 1 40.8554 3.12256 -1.96326 1.70177 5 
1100 1 43.4141 2.59338 -0.551987 0.306232 1 
1148 1 39.06 10.7342 -14.2167 0.000276076 1 
1150 1 41.2765 10.2561 -12.4634 0.000745888 1 
1151 1 40.1673 8.1024 -13.9932 0.000304796 1 
1152 1 39.8021 8.18561 -11.1436 0.00343662 1 
1153 1 42.3798 7.62251 -12.2443 0.000827251 1 
1154 1 42.0077 7.70566 -9.38727 0.00499009 1 
1155 1 40.902 5.55413 -10.926 0.00172414 1 
1156 1 40.5349 5.64565 -8.05735 0.00726045 1 
1157 1 43.1044 5.06794 -9.19659 0.0062228 1 
1158 1 42.7203 5.14857 -6.34157 0.0282839 1 
1159 1 41.6325 2.99741 -7.85947 0.0117104 1 
1160 1 41.2692 3.08472 -4.97005 0.068432 1 
1161 1 43.8386 2.48887 -6.18082 0.030166 1 
1162 1 43.4734 2.57913 -3.34444 0.259858 1 
1163 1 42.3433 0.4305 -4.82575 0.0692781 1 
1164 1 42.0754 0.496998 -1.94551 0.391863 1 
1221 1 41.2732 5.47048 -13.7755 0.000245243 1 
1222 1 43.8609 4.91034 -14.8731 9.97826e-05 1 
1223 1 43.486 4.98877 -12.0362 0.000884647 1 
1224 1 42.3808 2.83699 -13.5612 0.000252177 1 
1225 1 42.006 2.91627 -10.7181 0.00211453 1 
1226 1 43.1141 0.280894 -10.5127 0.00246378 1 
1227 1 42.7384 0.35274 -7.67347 0.0113016 1 
1289 1 43.4906 0.204948 -13.3468 0.000339222 1 
1645 1 20.1991 41.0606 -3.29441 5.46107 5 
1646 1 21.2902 38.4856 -0.627525 9.2675 5 
1647 1 20.946 40.9419 -8.79398 0.0347249 1 
1648 1 20.5854 40.987 -6.00959 0.448909 1 
1649 1 23.1945 40.509 -6.93462 0.236539 1 
1650 1 22.9382 40.7181 -3.82048 6.86667 5 
1651 1 21.7313 38.4147 -5.83372 0.573303 1 
1652 1 21.35 38.4435 -3.22134 9.65404 5 
1653 1 23.9768 38.0021 -3.88172 1.69307 5 
1654 1 22.7573 36.1235 -2.13194 8.5408 5 
1655 1 21.6824 40.7923 -14.4371 0.000250445 1 
1656 1 21.3155 40.8707 -11.606 0.00342425 1 
1657 1 23.9033 40.3179 -12.6796 0.00157305 1 
1658 1 23.5436 40.4066 -9.8208 0.020316 1 
1659 1 22.4301 38.2463 -11.3831 0.00391644 1 
1660 1 22.0745 38.33 -8.57503 0.0438543 1 
1661 1 24.6476 37.7704 -9.61324 0.00798954 1 
1662 1 24.3023 37.8681 -6.74962 0.0645687 1 
1663 1 23.1779 35.7051 -8.27462 0.0342017 1 
1664 1 22.8271 35.8178 -5.37325 0.517884 5 
1665 1 25.3695 35.2276 -6.50487 0.0237673 1 
1666 1 25.0069 35.2948 -3.56943 0.362708 1 
1667 1 23.9107 33.186 -5.15756 0.0990868 1 
1668 1 23.6152 33.2091 -2.08886 1.03911 5 
1669 1 26.0974 32.6389 -3.42399 0.195832 1 
1670 1 26.0051 32.6549 -0.510305 0.433373 1 
1671 1 24.588 30.5512 -1.96326 1.70178 5 
1672 1 27.1467 30.022 -0.551986 0.306232 1 
1678 1 22.7927 38.1627 -14.2167 0.00027607 1 
1680 1 25.0091 37.6847 -12.4634 0.000745842 1 
1681 1 23.8999 35.531 -13.9932 0.0003048 1 
1682 1 23.5348 35.6142 -11.1436 0.00343658 1 
1683 1 26.1124 35.0511 -12.2443 0.000827253 1 
1684 1 25.7403 35.1343 -9.38727 0.00499008 1 
1685 1 24.6347 32.9827 -10.926 0.00172417 1 
1686 1 24.2676 33.0742 -8.05735 0.00726015 1 
1687 1 26.8371 32.4965 -9.19659 0.00622281 1 
1688 1 26.453 32.5772 -6.34157 0.0282837 1 
1689 1 25.3652 30.426 -7.85947 0.0117101 1 
1690 1 25.0018 30.5133 -4.97005 0.0684328 1 
1691 1 27.5712 29.9175 -6.18082 0.0301666 1 
1692 1 27.206 30.0077 -3.34444 0.259857 1 
1693 1 26.0759 27.8591 -4.82575 0.0692785 1 
1694 1 25.8081 27.9256 -1.94551 0.391862 1 
1695 1 28.3328 27.3463 -3.29441 5.46106 5 
1696 1 28.2925 27.3594 -0.571619 4.91652 5 
1697 1 26.9662 25.2604 -1.94465 0.216673 1 
1698 1 29.4238 24.7713 -0.62752 9.26751 5 
1712 1 25.0059 32.8991 -13.7755 0.000245239 1 
1713 1 27.5936 32.3389 -14.8731 9.97808e-05 1 
1714 1 27.2187 32.4174 -12.0362 0.000884654 1 
1715 1 26.1134 30.2656 -13.5612 0.000252175 1 
1716 1 25.7386 30.3449 -10.7181 0.00211456 1 
1717 1 28.3317 29.7843 -11.8253 0.00123148 1 
1718 1 27.9517 29.855 -9.00267 0.00831163 1 
1719 1 26.8468 27.7095 -10.5127 0.0024638 1 
1720 1 26.471 27.7813 -7.67347 0.0113014 1 
1721 1 29.0797 27.2276 -8.79398 0.034725 1 
1722 1 28.7191 27.2727 -6.00959 0.448908 1 
1723 1 27.5751 25.142 -7.51458 0.0360651 1 
1724 1 27.1865 25.2099 -4.73739 0.137697 1 
1725 1 29.865 24.7004 -5.83372 0.57329 1 
1726 1 29.4837 24.7292 -3.22134 9.65401 5 
1727 1 28.3445 22.5651 -4.58146 1.62296 5 
1728 1 28.1603 22.5229 -1.92447 7.35249 2 
1729 1 30.891 22.4092 -2.13194 8.54082 5 
1749 1 28.7044 29.7077 -14.6566 0.000140085 1 
1751 1 27.2232 27.6335 -13.3468 0.000339221 1 
1752 1 29.8161 27.078 -14.4371 0.000250444 1 
1753 1 29.4492 27.1564 -11.606 0.00342425 1 
1754 1 28.3355 25.0035 -13.132 0.000584663 1 
1755 1 27.9614 25.0782 -10.3112 0.00500918 1 
1756 1 30.5638 24.532 -11.3831 0.00391645 1 
1757 1 30.2082 24.6157 -8.57503 0.0438547 1 
1758 1 29.0855 22.4528 -10.0861 0.0106708 1 
1759 1 28.7206 22.5255 -7.30121 0.109325 1 
1760 1 31.3116 21.9908 -8.27462 0.0342019 1 
1761 1 30.9608 22.1035 -5.37325 0.517883 5 
1762 1 29.8493 19.9375 -6.93462 0.236549 1 
1763 1 29.5931 20.1467 -3.82048 6.8666 5 
1764 1 32.0444 19.4717 -5.15756 0.0990866 1 
1765 1 31.7489 19.4948 -2.08886 1.03911 5 
1766 1 30.6316 17.4306 -3.88172 1.69303 5 
1767 1 32.7217 16.8369 -1.96326 1.70178 5 
1795 1 30.9263 24.4485 -14.2167 0.000276069 1 
1797 1 29.4491 22.3748 -12.9099 0.000848316 1 
1798 1 32.0336 21.8167 -13.9932 0.000304798 1 
1799 1 31.6685 21.8999 -11.1436 0.00343657 1 
1800 1 30.5581 19.7464 -12.6796 0.00157311 1 
1801 1 30.1985 19.8352 -9.8208 0.020315 1 
1802 1 32.7683 19.2684 -10.926 0.00172415 1 
1803 1 32.4012 19.3599 -8.05735 0.00726026 1 
1804 1 31.3025 17.1989 -9.61324 0.00798883 1 
1805 1 30.9571 17.2966 -6.74962 0.064575 1 
1806 1 33.4989 16.7117 -7.85947 0.0117102 1 
1807 1 33.1355 16.799 -4.97005 0.0684324 1 
1808 1 32.0243 14.6562 -6.50487 0.0237672 1 
1809 1 31.6617 14.7234 -3.56943 0.362708 1 
1810 1 34.2096 14.1448 -4.82575 0.0692776 1 
1811 1 33.9418 14.2113 -1.94551 0.391863 1 
1812 1 32.7522 12.0675 -3.42399 0.195833 1 
1813 1 32.6599 12.0834 -0.510305 0.433373 1 
1814 1 35.0999 11.5461 -1.94465 0.216673 1 
1815 1 33.8015 9.45053 -0.551986 0.306233 1 
1851 1 33.1396 19.1848 -13.7755 0.000245242 1 
1853 1 31.664 17.1133 -12.4634 0.000745887 1 
1854 1 34.2471 16.5513 -13.5612 0.00025218 1 
1855 1 33.8723 16.6306 -10.7181 0.00211453 1 
1856 1 32.7673 14.4797 -12.2443 0.000827252 1 
1857 1 32.3952 14.5628 -9.38727 0.00499008 1 
1858 1 34.9804 13.9952 -10.5127 0.00246376 1 
1859 1 34.6047 14.067 -7.67347 0.0113018 1 
1860 1 33.4919 11.9251 -9.19659 0.00622281 1 
1861 1 33.1078 12.0057 -6.34157 0.0282837 1 
1862 1 35.7088 11.4277 -7.51458 0.0360665 1 
1863 1 35.3201 11.4956 -4.73739 0.137691 1 
1864 1 34.2261 9.34602 -6.18082 0.0301664 1 
1865 1 33.8609 9.43628 -3.34444 0.259858 1 
1866 1 36.4782 8.85075 -4.58146 1.62298 5 
1867 1 36.2939 8.80858 -1.92447 7.35243 2 
1868 1 34.9876 6.77485 -3.29441 5.46107 5 
1869 1 34.9474 6.78795 -0.57162 4.91652 5 
1870 1 36.0787 4.19983 -0.627528 9.2675 5 
1914 1 35.3569 13.9192 -13.3468 0.000339227 1 
1915 1 34.2484 11.7675 -14.8731 9.97821e-05 1 
1916 1 33.8735 11.8459 -12.0362 0.000884648 1 
1917 1 36.4691 11.2892 -13.132 0.000584658 1 
1918 1 36.095 11.3639 -10.3112 0.00500916 1 
1919 1 34.9866 9.2128 -11.8253 0.00123147 1 
1920 1 34.6066 9.28355 -9.00267 0.00831166 1 
1921 1 37.2191 8.73848 -10.0861 0.0106707 1 
1922 1 36.8543 8.81123 -7.30121 0.109326 1 
1923 1 35.7345 6.65618 -8.79398 0.0347249 1 
1924 1 35.3739 6.70127 -6.00959 0.448909 1 
1925 1 37.983 6.22325 -6.93462 0.23654 1 
1926 1 37.7268 6.4324 -3.82048 6.86667 5 
1927 1 36.5198 4.12898 -5.83372 0.57331 1 
1928 1 36.1385 4.15778 -3.22133 9.65406 5 
1929 1 38.7653 3.71633 -3.88172 1.69306 5 
1930 1 37.5458 1.83774 -2.13194 8.5408 5 
1980 1 35.3592 9.13629 -14.6566 0.000140085 1 
1982 1 37.5828 8.66046 -12.9099 0.000848315 1 
1983 1 36.4709 6.50657 -14.4371 0.000250445 1 
1984 1 36.104 6.58497 -11.606 0.00342425 1 
1985 1 38.6918 6.03213 -12.6796 0.00157305 1 
1986 1 38.3321 6.12088 -9.8208 0.0203159 1 
1987 1 37.2186 3.96051 -11.3831 0.00391643 1 
1988 1 36.863 4.04421 -8.57503 0.0438541 1 
1989 1 39.4362 3.48465 -9.61324 0.00798951 1 
1990 1 39.0908 3.58232 -6.74962 0.0645691 1 
1991 1 37.9664 1.41939 -8.27462 0.0342017 1 
1992 1 37.6156 1.53202 -5.37325 0.517885 5 
1993 1 40.158 0.941862 -6.50487 0.0237673 1 
1994 1 39.7954 1.00907 -3.56943 0.362708 1 
2052 1 37.5812 3.877 -14.2167 0.00027607 1 
2054 1 39.7977 3.39899 -12.4634 0.000745843 1 
2055 1 38.6884 1.24525 -13.9932 0.0003048 1 
2056 1 38.3233 1.32846 -11.1436 0.00343658 1 
2057 1 40.9009 0.76536 -12.2443 0.000827251 1 
2058 1 40.5289 0.848514 -9.38727 0.00499008 1 
2658 1 16.4848 39.4961 -3.42399 0.195831 1 
2659 1 16.3926 39.512 -0.510306 0.43337 1 
2660 1 18.8326 38.9747 -1.94465 0.216673 1 
2661 1 17.5342 36.8791 -0.551987 0.306231 1 
2662 1 17.2245 39.3537 -9.19659 0.00622279 1 
2663 1 16.8404 39.4343 -6.34157 0.0282841 1 
2664 1 19.4415 38.8563 -7.51458 0.0360652 1 
2665 1 19.0528 38.9242 -4.73739 0.137696 1 
2666 1 17.9587 36.7746 -6.18082 0.0301657 1 
2667 1 17.5935 36.8649 -3.34443 0.259857 1 
2668 1 20.2108 36.2794 -4.58146 1.62296 5 
2669 1 20.0266 36.2372 -1.92447 7.35249 2 
2670 1 18.7203 34.2035 -3.29441 5.46109 5 
2671 1 18.68 34.2165 -0.571623 4.91653 5 
2672 1 19.8113 31.6284 -0.62757 9.26745 5 
2673 1 17.981 39.1961 -14.8731 9.97826e-05 1 
2674 1 17.6061 39.2745 -12.0362 0.000884649 1 
2675 1 20.2018 38.7178 -13.132 0.000584663 1 
2676 1 19.8277 38.7925 -10.3112 0.00500918 1 
2677 1 18.7192 36.6414 -11.8253 0.00123147 1 
2678 1 18.3392 36.7122 -9.00267 0.00831167 1 
2679 1 20.9518 36.1671 -10.0861 0.0106708 1 
2680 1 20.5869 36.2398 -7.30121 0.109325 1 
2681 1 19.4672 34.0848 -8.79398 0.0347245 1 
2682 1 19.1065 34.1299 -6.0096 0.448915 1 
2683 1 21.7156 33.6518 -6.93462 0.23655 1 
2684 1 21.4594 33.861 -3.82048 6.86659 5 
2685 1 20.2524 31.5576 -5.83374 0.573416 1 
2686 1 19.8711 31.5864 -3.22129 9.65437 5 
2687 1 22.4979 31.1449 -3.88172 1.69303 5 
2688 1 21.2785 29.2663 -2.13194 8.54069 5 
2695 1 19.0919 36.5649 -14.6566 0.000140085 1 
2697 1 21.3154 36.0891 -12.9099 0.000848317 1 
2698 1 20.2036 33.9352 -14.4371 0.000250442 1 
2699 1 19.8367 34.0136 -11.606 0.00342428 1 
2700 1 22.4244 33.4607 -12.6796 0.00157312 1 
2701 1 22.0648 33.5495 -9.8208 0.020315 1 
2702 1 20.9512 31.3891 -11.3831 0.00391637 1 
2703 1 20.5956 31.4728 -8.57502 0.0438505 1 
2704 1 23.1688 30.9132 -9.61324 0.00798877 1 
2705 1 22.8234 31.0109 -6.74962 0.0645756 1 
2706 1 21.699 28.848 -8.27462 0.0342006 1 
2707 1 21.3482 28.9606 -5.37325 0.517897 5 
2708 1 23.8907 28.3705 -6.50487 0.0237671 1 
2709 1 23.528 28.4377 -3.56943 0.362708 1 
2710 1 22.4318 26.3289 -5.15756 0.0990859 1 
2711 1 22.1363 26.3519 -2.08886 1.03911 5 
2712 1 24.6185 25.7818 -3.42399 0.195831 1 
2713 1 24.5262 25.7977 -0.510306 0.43337 1 
2714 1 23.1092 23.694 -1.96326 1.70177 5 
2715 1 25.6679 23.1648 -0.551987 0.306231 1 
2731 1 21.3138 31.3056 -14.2167 0.000276076 1 
2733 1 23.5303 30.8276 -12.4634 0.000745889 1 
2734 1 22.4211 28.6739 -13.9932 0.000304794 1 
2735 1 22.0559 28.7571 -11.1436 0.00343662 1 
2736 1 24.6336 28.194 -12.2443 0.000827248 1 
2737 1 24.2615 28.2771 -9.38727 0.00499009 1 
2738 1 23.1558 26.1256 -10.926 0.00172413 1 
2739 1 22.7887 26.2171 -8.05735 0.00726053 1 
2740 1 25.3582 25.6394 -9.19659 0.00622278 1 
2741 1 24.9741 25.72 -6.34157 0.0282842 1 
2742 1 23.8863 23.5689 -7.85947 0.0117106 1 
2743 1 23.523 23.6562 -4.97005 0.0684317 1 
2744 1 26.0924 23.0603 -6.18082 0.0301656 1 
2745 1 25.7272 23.1506 -3.34443 0.259857 1 
2746 1 24.5971 21.0019 -4.82575 0.0692777 1 
2747 1 24.3292 21.0684 -1.94551 0.391863 1 
2748 1 26.8539 20.4892 -3.29441 5.46109 5 
2749 1 26.8137 20.5022 -0.571624 4.91653 5 
2750 1 25.4874 18.4033 -1.94465 0.216673 1 
2751 1 27.945 17.9141 -0.627565 9.26746 5 
2775 1 23.527 26.0419 -13.7755 0.000245244 1 
2776 1 26.1147 25.4818 -14.8731 9.97833e-05 1 
2777 1 25.7398 25.5602 -12.0362 0.000884647 1 
2778 1 24.6346 23.4084 -13.5612 0.00025218 1 
2779 1 24.2598 23.4877 -10.7181 0.00211451 1 
2780 1 26.8529 22.9271 -11.8253 0.00123146 1 
2781 1 26.4729 22.9979 -9.00267 0.00831168 1 
2782 1 25.3679 20.8523 -10.5127 0.00246376 1 
2783 1 24.9922 20.9242 -7.67347 0.0113018 1 
2784 1 27.6009 20.3705 -8.79398 0.0347245 1 
2785 1 27.2402 20.4156 -6.0096 0.448916 1 
2786 1 26.0963 18.2848 -7.51458 0.0360664 1 
2787 1 25.7076 18.3528 -4.73739 0.137691 1 
2788 1 28.3861 17.8433 -5.83374 0.573405 1 
2789 1 28.0048 17.8721 -3.2213 9.65434 5 
2790 1 26.8656 15.7079 -4.58146 1.62299 5 
2791 1 26.6814 15.6657 -1.92447 7.35243 2 
2792 1 29.4121 15.552 -2.13194 8.5407 5 
2823 1 27.2256 22.8506 -14.6566 0.000140085 1 
2825 1 25.7444 20.7764 -13.3468 0.000339225 1 
2826 1 28.3372 20.2209 -14.4371 0.000250444 1 
2827 1 27.9704 20.2993 -11.606 0.00342427 1 
2828 1 26.8566 18.1464 -13.132 0.00058466 1 
2829 1 26.4825 18.2211 -10.3112 0.00500917 1 
2830 1 29.0849 17.6748 -11.3831 0.00391637 1 
2831 1 28.7293 17.7585 -8.57502 0.0438508 1 
2832 1 27.6066 15.5956 -10.0861 0.0106707 1 
2833 1 27.2418 15.6684 -7.30121 0.109325 1 
2834 1 29.8327 15.1337 -8.27462 0.0342007 1 
2835 1 29.4819 15.2463 -5.37325 0.517896 5 
2836 1 28.3704 13.0804 -6.93462 0.23654 1 
2837 1 28.1142 13.2895 -3.82048 6.86667 5 
2838 1 30.5655 12.6146 -5.15756 0.0990862 1 
2839 1 30.27 12.6376 -2.08886 1.03911 5 
2840 1 29.1527 10.5735 -3.88172 1.69306 5 
2841 1 31.2428 9.97971 -1.96326 1.70177 5 
2881 1 29.4475 17.5913 -14.2167 0.000276076 1 
2883 1 27.9702 15.5176 -12.9099 0.000848316 1 
2884 1 30.5548 14.9596 -13.9932 0.000304797 1 
2885 1 30.1896 15.0428 -11.1436 0.00343663 1 
2886 1 29.0793 12.8893 -12.6796 0.00157305 1 
2887 1 28.7196 12.978 -9.8208 0.0203159 1 
2888 1 31.2895 12.4113 -10.926 0.00172415 1 