ITEM: TIMESTEP
0
ITEM: NUMBER OF ATOMS
3262
ITEM: BOX BOUNDS pp pp ss
0.0000000000000000e+00 4.7920246243000001e+01
0.0000000000000000e+00 3.7884281041000001e+01
-9.8683864480155179e+01 9.9965999661073752e+01
ITEM: ATOMS id type x y z c_csym c_cna 
1454 1 1.28482 1.93521 -13.4951 5.46859e-05 1 
1450 1 4.70584 4.10467 -13.5015 6.46006e-05 1 
1935 1 6.07727 1.93859 -14.785 4.4819e-05 1 
1931 1 9.50324 4.10434 -14.7859 4.03181e-05 1 
1979 1 12.2451 3.56204 -14.1452 5.65046e-05 1 
1982 1 11.5605 0.855139 -13.5087 6.37363e-05 1 
1983 1 8.81817 1.39802 -14.1488 5.62036e-05 1 
1978 1 14.9864 3.01877 -13.5005 9.27674e-05 1 
2019 1 16.3548 0.851476 -14.7777 4.81587e-05 1 
2015 1 19.7747 3.01584 -14.7732 2.45178e-05 1 
2018 1 19.0919 0.308805 -14.1334 3.40876e-05 1 
2014 1 22.51 2.47461 -14.1321 3.02646e-05 1 
2046 1 25.2449 1.93521 -13.4951 5.46859e-05 1 
2042 1 28.666 4.10467 -13.5015 6.46006e-05 1 
2519 1 30.0374 1.93859 -14.785 4.4819e-05 1 
2515 1 33.4634 4.10434 -14.7859 4.03181e-05 1 
2539 1 32.7783 1.39802 -14.1488 5.62036e-05 1 
2534 1 38.9465 3.01877 -13.5005 9.27674e-05 1 
2535 1 36.2052 3.56204 -14.1452 5.65046e-05 1 
2538 1 35.5207 0.855139 -13.5087 6.37363e-05 1 
2546 1 43.052 0.308805 -14.1334 3.40876e-05 1 
2547 1 40.315 0.851476 -14.7777 4.81587e-05 1 
2542 1 46.4701 2.47461 -14.1321 3.02646e-05 1 
2543 1 43.7348 3.01584 -14.7732 2.45178e-05 1 
1396 1 2.65297 7.34857 -14.7752 2.72599e-05 1 
1399 1 1.96852 4.64245 -14.1355 4.12909e-05 1 
1395 1 5.39109 6.81026 -14.14 4.04478e-05 1 
1446 1 8.13163 6.27097 -13.5045 5.55494e-05 1 
1927 1 12.9294 6.26753 -14.7808 3.67772e-05 1 
1975 1 15.6692 5.72451 -14.1364 5.39621e-05 1 
1971 1 19.0887 7.88698 -14.1299 1.83507e-05 1 
1974 1 18.4066 5.18128 -13.4915 4.33227e-05 1 
1970 1 21.8243 7.34549 -13.4879 2.35857e-05 1 
2010 1 25.9286 4.64245 -14.1355 4.12909e-05 1 
2011 1 23.193 5.18155 -14.7724 2.09868e-05 1 
2006 1 29.3512 6.81026 -14.14 4.04478e-05 1 
2007 1 26.6131 7.34857 -14.7752 2.72599e-05 1 
2038 1 32.0918 6.27097 -13.5045 5.55494e-05 1 
2511 1 36.8895 6.26753 -14.7808 3.67772e-05 1 
2527 1 43.0488 7.88698 -14.1299 1.83507e-05 1 
2530 1 42.3667 5.18128 -13.4915 4.33227e-05 1 
2531 1 39.6294 5.72451 -14.1364 5.39621e-05 1 
2526 1 45.7844 7.34549 -13.4879 2.35857e-05 1 
2540 1 47.1532 5.18155 -14.7724 2.09868e-05 1 
1340 1 1.96825 12.2179 -14.1318 2.20795e-05 1 
1343 1 1.28309 9.51173 -13.49 5.33816e-05 1 
1339 1 4.70648 11.6797 -13.4957 3.15428e-05 1 
1392 1 6.07692 9.51525 -14.7787 2.44809e-05 1 
1442 1 11.5592 8.43322 -13.4999 4.48636e-05 1 
1387 1 12.2439 11.137 -14.136 2.83324e-05 1 
1388 1 9.50341 11.6793 -14.7783 2.02323e-05 1 
1391 1 8.81764 8.97522 -14.1409 3.12534e-05 1 
1923 1 16.352 8.4295 -14.7734 2.5015e-05 1 
1438 1 14.9829 10.5942 -13.4916 3.8308e-05 1 
1919 1 19.7717 10.5924 -14.7694 8.51486e-06 1 
1963 1 25.9284 12.2179 -14.1318 2.20795e-05 1 
1966 1 25.2432 9.51173 -13.49 5.33816e-05 1 
1967 1 22.5076 10.0512 -14.1281 3.10466e-05 1 
1962 1 28.6666 11.6797 -13.4957 3.15428e-05 1 
2003 1 30.037 9.51525 -14.7787 2.44809e-05 1 
1999 1 33.4635 11.6793 -14.7783 2.02323e-05 1 
2002 1 32.7778 8.97522 -14.1409 3.12534e-05 1 
2034 1 35.5193 8.43322 -13.4999 4.48636e-05 1 
1998 1 36.204 11.137 -14.136 2.83324e-05 1 
2030 1 38.943 10.5942 -13.4916 3.8308e-05 1 
2507 1 40.3121 8.4295 -14.7734 2.5015e-05 1 
2503 1 43.7318 10.5924 -14.7694 8.51486e-06 1 
2524 1 46.4677 10.0512 -14.1281 3.10466e-05 1 
1289 1 2.65367 14.9234 -14.7729 1.83266e-05 1 
1335 1 8.13302 13.8445 -13.4978 3.50813e-05 1 
1336 1 5.39242 14.3846 -14.136 2.59484e-05 1 
1331 1 11.5593 16.0059 -13.4943 3.43927e-05 1 
1332 1 8.819 16.5487 -14.137 2.29061e-05 1 
1384 1 12.9283 13.8412 -14.7739 1.7336e-05 1 
1380 1 16.3503 16.0034 -14.77 1.03184e-05 1 
1383 1 15.6663 13.2984 -14.1298 2.7037e-05 1 
1434 1 18.4025 12.7561 -13.4868 1.79458e-05 1 
1379 1 19.0866 15.4615 -14.1277 6.0622e-06 1 
1915 1 23.1918 12.7572 -14.7696 9.37788e-06 1 
1430 1 21.8229 14.9206 -13.4865 8.48896e-06 1 
1911 1 26.6138 14.9234 -14.7729 1.83266e-05 1 
1959 1 29.3525 14.3846 -14.136 2.59484e-05 1 
1955 1 32.7791 16.5487 -14.137 2.29061e-05 1 
1958 1 32.0931 13.8445 -13.4978 3.50813e-05 1 
1954 1 35.5195 16.0059 -13.4943 3.43927e-05 1 
1995 1 36.8885 13.8412 -14.7739 1.7336e-05 1 
2026 1 42.3626 12.7561 -13.4868 1.79458e-05 1 
1990 1 43.0467 15.4615 -14.1277 6.0622e-06 1 
1991 1 40.3105 16.0034 -14.77 1.03184e-05 1 
1994 1 39.6265 13.2984 -14.1298 2.7037e-05 1 
2499 1 47.1519 12.7572 -14.7696 9.37788e-06 1 
2022 1 45.783 14.9206 -13.4865 8.48896e-06 1 
813 1 1.28409 17.0865 -13.4898 4.18806e-05 1 
773 1 1.96988 19.7927 -14.1327 1.89212e-05 1 
1285 1 6.07851 17.0894 -14.7766 1.93218e-05 1 
809 1 4.70871 19.2541 -13.4958 2.83718e-05 1 
1281 1 9.50484 19.2532 -14.7768 1.68293e-05 1 
1328 1 12.2444 18.7104 -14.1337 2.26988e-05 1 
1324 1 15.6667 20.8725 -14.1299 2.41557e-05 1 
1327 1 14.9822 18.1674 -13.4891 2.50498e-05 1 
1323 1 18.4025 20.3305 -13.4874 1.70082e-05 1 
1376 1 19.7711 18.167 -14.769 4.45948e-06 1 
1426 1 25.2442 17.0865 -13.4898 4.18806e-05 1 
1371 1 25.93 19.7927 -14.1327 1.89212e-05 1 
1372 1 23.1927 20.3321 -14.7708 6.73376e-06 1 
1375 1 22.5076 17.6261 -14.1282 2.00887e-05 1 
1907 1 30.0386 17.0894 -14.7766 1.93218e-05 1 
1422 1 28.6688 19.2541 -13.4958 2.83718e-05 1 
1903 1 33.465 19.2532 -14.7768 1.68293e-05 1 
1950 1 38.9424 18.1674 -13.4891 2.50498e-05 1 
1951 1 36.2046 18.7104 -14.1337 2.26988e-05 1 
1946 1 42.3626 20.3305 -13.4874 1.70082e-05 1 
1947 1 39.6269 20.8725 -14.1299 2.41557e-05 1 
1984 1 47.1528 20.3321 -14.7708 6.73376e-06 1 
1986 1 46.4678 17.6261 -14.1282 2.00887e-05 1 
1987 1 43.7313 18.167 -14.769 4.45948e-06 1 
739 1 1.28634 24.6618 -13.4929 3.7194e-05 1 
770 1 2.65553 22.4985 -14.7747 1.5873e-05 1 
766 1 6.08054 24.6645 -14.7789 1.91198e-05 1 
769 1 5.3947 21.9592 -14.1373 2.36097e-05 1 
805 1 8.13535 21.4187 -13.4982 3.23168e-05 1 
765 1 8.82117 24.1234 -14.139 2.16292e-05 1 
801 1 11.5613 23.5804 -13.4958 3.33879e-05 1 
1277 1 12.9294 21.4153 -14.7739 1.54257e-05 1 
1273 1 16.3515 23.5783 -14.7716 1.08352e-05 1 
1320 1 19.0876 23.0365 -14.1296 6.59182e-06 1 
1315 1 25.2465 24.6618 -13.4929 3.7194e-05 1 
1316 1 22.5094 25.2017 -14.1311 1.65738e-05 1 
1319 1 21.8241 22.4956 -13.4889 6.58612e-06 1 
1364 1 30.0407 24.6645 -14.7789 1.91198e-05 1 
1367 1 29.3548 21.9592 -14.1373 2.36097e-05 1 
1368 1 26.6157 22.4985 -14.7747 1.5873e-05 1 
1363 1 32.7813 24.1234 -14.139 2.16292e-05 1 
1418 1 32.0955 21.4187 -13.4982 3.23168e-05 1 
1414 1 35.5215 23.5804 -13.4958 3.33879e-05 1 
1899 1 36.8895 21.4153 -14.7739 1.54257e-05 1 
1895 1 40.3116 23.5783 -14.7716 1.08352e-05 1 
1943 1 43.0477 23.0365 -14.1296 6.59182e-06 1 
1940 1 46.4695 25.2017 -14.1311 1.65738e-05 1 
1942 1 45.7842 22.4956 -13.4889 6.58612e-06 1 
736 1 1.97185 27.3687 -14.136 2.14099e-05 1 
731 1 8.13697 28.9945 -13.5033 4.12785e-05 1 
735 1 4.71104 26.8296 -13.4994 3.23087e-05 1 
758 1 12.9314 28.9916 -14.7778 2.19168e-05 1 
761 1 12.2465 26.2857 -14.1367 2.3974e-05 1 
762 1 9.50665 26.8286 -14.7801 1.77007e-05 1 
757 1 15.6692 28.4489 -14.1333 3.04152e-05 1 
797 1 14.9843 25.7428 -13.492 2.74662e-05 1 
793 1 18.405 27.9069 -13.4905 1.91184e-05 1 
1269 1 19.7727 25.7428 -14.7715 4.59619e-06 1 
1265 1 23.1945 27.9085 -14.7736 7.82619e-06 1 
1312 1 25.932 27.3687 -14.136 2.14099e-05 1 
1311 1 28.6712 26.8296 -13.4994 3.23086e-05 1 
1307 1 32.0971 28.9945 -13.5033 4.12785e-05 1 
1360 1 33.4668 26.8286 -14.7801 1.77007e-05 1 
1356 1 36.8915 28.9916 -14.7778 2.19168e-05 1 
1359 1 36.2067 26.2857 -14.1367 2.3974e-05 1 
1410 1 38.9444 25.7428 -13.492 2.74662e-05 1 
1355 1 39.6293 28.4489 -14.1333 3.04152e-05 1 
1406 1 42.3651 27.9069 -13.4905 1.91184e-05 1 
1887 1 47.1546 27.9085 -14.7736 7.82619e-06 1 
1891 1 43.7329 25.7428 -14.7715 4.59619e-06 1 
321 1 1.28736 32.2394 -13.4959 4.84414e-05 1 
713 1 2.65666 30.0752 -14.7781 2.1064e-05 1 
732 1 5.39593 29.5356 -14.1416 3.17594e-05 1 
709 1 6.08037 32.242 -14.7837 3.14816e-05 1 
727 1 11.5628 31.1572 -13.5024 4.32939e-05 1 
728 1 8.82148 31.7006 -14.1451 3.17557e-05 1 
723 1 14.9872 33.3211 -13.4971 7.84326e-05 1 
754 1 16.354 31.1558 -14.7749 1.97733e-05 1 
750 1 19.7749 33.3208 -14.7736 7.82987e-06 1 
753 1 19.0903 30.6139 -14.1323 9.5431e-06 1 
749 1 22.511 32.7794 -14.1332 2.08149e-05 1 
785 1 25.2475 32.2394 -13.4959 4.84414e-05 1 
789 1 21.8265 30.0726 -13.4916 1.08327e-05 1 
1308 1 29.3561 29.5356 -14.1416 3.17594e-05 1 
1257 1 30.0405 32.242 -14.7837 3.14816e-05 1 
1261 1 26.6168 30.0752 -14.7781 2.1064e-05 1 
1304 1 32.7816 31.7006 -14.1451 3.17557e-05 1 
1299 1 38.9473 33.3211 -13.4971 7.84326e-05 1 
1303 1 35.523 31.1572 -13.5024 4.32939e-05 1 
1351 1 43.0504 30.6139 -14.1323 9.5431e-06 1 
1352 1 40.3141 31.1558 -14.7749 1.97733e-05 1 
1347 1 46.4712 32.7794 -14.1332 2.08149e-05 1 
1348 1 43.735 33.3208 -14.7736 7.82987e-06 1 
1402 1 45.7867 30.0726 -13.4916 1.08327e-05 1 
306 1 2.65469 37.6548 -14.7798 3.74169e-05 1 
309 1 1.97116 34.9473 -14.1386 4.1651e-05 1 
305 1 5.39302 37.1158 -14.1452 5.68386e-05 1 
313 1 8.13381 36.5752 -13.5098 7.19138e-05 1 
317 1 4.70956 34.4084 -13.5041 6.32044e-05 1 
724 1 12.2472 33.8643 -14.1434 3.61132e-05 1 
701 1 12.9313 36.5716 -14.7835 3.42203e-05 1 
705 1 9.5058 34.4074 -14.7863 2.72745e-05 1 
720 1 15.6713 36.0283 -14.1376 7.81588e-05 1 
719 1 18.4082 35.4857 -13.4926 3.85904e-05 1 
716 1 21.8273 37.6516 -13.4918 2.92511e-05 1 
745 1 25.9313 34.9473 -14.1386 4.1651e-05 1 
746 1 23.1948 35.4869 -14.7752 1.70121e-05 1 
741 1 29.3531 37.1158 -14.1452 5.68386e-05 1 
742 1 26.6148 37.6548 -14.7798 3.74169e-05 1 
781 1 28.6697 34.4084 -13.5041 6.32044e-05 1 
777 1 32.0939 36.5752 -13.5098 7.19138e-05 1 
1253 1 33.4659 34.4074 -14.7863 2.72745e-05 1 
1300 1 36.2073 33.8643 -14.1434 3.61132e-05 1 
1249 1 36.8915 36.5716 -14.7835 3.42203e-05 1 
1295 1 42.3683 35.4857 -13.4926 3.85904e-05 1 
1296 1 39.6314 36.0283 -14.1376 7.81588e-05 1 
1292 1 45.7874 37.6516 -13.4918 2.92511e-05 1 
1345 1 47.1549 35.4869 -14.7752 1.70121e-05 1 
975 1 3.33172 2.48838 -9.02151 0.00279568 1 
976 1 0.597771 3.01635 -9.64528 0.00062892 1 
1452 1 2.65054 3.56274 -11.5757 0.000224295 1 
1453 1 4.0214 1.39781 -12.8619 9.4011e-05 1 
1455 1 1.96736 0.853612 -10.9342 0.000315009 1 
1449 1 7.44587 3.56597 -12.8682 9.12958e-05 1 
1451 1 5.38881 3.02811 -10.9462 0.000189323 1 
1500 1 8.12977 2.4885 -10.3173 0.000319094 1 
1502 1 6.76082 0.859625 -12.2304 0.00013195 1 
1503 1 4.7051 0.321252 -10.3059 0.000427007 1 
1026 1 6.07698 1.95822 -8.39493 0.00137942 1 
1497 1 12.9317 2.47986 -11.5902 0.000192717 1 
1498 1 10.1883 3.02418 -12.2321 0.000124882 1 
1499 1 10.8722 1.94283 -9.68303 0.000502925 1 
1501 1 9.50301 0.317239 -11.5963 0.000185983 1 
1022 1 9.49831 4.1141 -8.40227 0.00112152 1 
1495 1 14.3033 4.10375 -9.66735 0.000742363 1 
1538 1 17.0487 3.55997 -9.00729 0.00262525 1 
1540 1 15.6753 1.93642 -10.9412 0.000502357 1 
1542 1 13.617 1.39502 -9.04056 0.00087679 1 
2020 1 14.3027 0.311364 -12.8634 8.87838e-05 1 
1536 1 19.0928 4.0973 -10.926 0.000145887 1 
1539 1 18.4148 1.38996 -10.2861 0.00104638 1 
1572 1 21.1459 0.845737 -9.64146 0.000400311 1 
2016 1 20.4603 1.93187 -12.2084 6.10218e-05 1 
2017 1 17.7252 2.47476 -12.8531 0.000139048 1 
1535 1 21.8259 3.55455 -10.2824 0.000175445 1 
1568 1 24.5579 3.01635 -9.64528 0.00062892 1 
1571 1 23.8782 0.302966 -9.00049 0.00125804 1 
2012 1 23.876 4.09909 -12.2089 7.18336e-05 1 
2047 1 25.9275 0.853612 -10.9342 0.000315009 1 
2048 1 23.194 1.39081 -11.5676 0.000124059 1 
1567 1 27.2918 2.48838 -9.02151 0.00279568 1 
2043 1 29.3489 3.02811 -10.9462 0.000189323 1 
2044 1 26.6107 3.56274 -11.5757 0.000224295 1 
2045 1 27.9815 1.39781 -12.8619 9.4011e-05 1 
2068 1 28.6652 0.321252 -10.3059 0.000427007 1 
1593 1 30.0371 1.95822 -8.39493 0.00137942 1 
2041 1 31.406 3.56597 -12.8682 9.12958e-05 1 
2063 1 34.1485 3.02418 -12.2321 0.000124882 1 
2065 1 32.0899 2.4885 -10.3173 0.000319094 1 
2066 1 33.4631 0.317239 -11.5963 0.000185983 1 
2067 1 30.7209 0.859625 -12.2304 0.00013195 1 
2064 1 34.8323 1.94283 -9.68303 0.000502925 1 
1589 1 33.4584 4.1141 -8.40227 0.00112152 1 
2060 1 38.2635 4.10375 -9.66735 0.000742363 1 
2062 1 36.8918 2.47986 -11.5902 0.000192717 1 
2079 1 37.5771 1.39502 -9.04056 0.00087679 1 
2548 1 38.2628 0.311364 -12.8634 8.87838e-05 1 
2073 1 43.0529 4.0973 -10.926 0.000145887 1 
2075 1 41.0089 3.55997 -9.00729 0.00262525 1 
2076 1 42.3749 1.38996 -10.2861 0.00104638 1 
2077 1 39.6354 1.93642 -10.9412 0.000502357 1 
2545 1 41.6853 2.47476 -12.8531 0.000139048 1 
978 1 47.8383 0.302966 -9.00049 0.00125804 1 
1400 1 47.8362 4.09909 -12.2089 7.18336e-05 1 
2072 1 45.786 3.55455 -10.2824 0.000175445 1 
2081 1 45.1061 0.845737 -9.64146 0.000400311 1 
2544 1 44.4204 1.93187 -12.2084 6.10218e-05 1 
2549 1 47.1541 1.39081 -11.5676 0.000124059 1 
922 1 1.28167 5.72335 -10.2838 0.000343277 1 
972 1 4.0171 5.19398 -9.65636 0.000983993 1 
1397 1 3.33492 6.26898 -12.2147 0.000123567 1 
1398 1 0.599129 6.80561 -12.8488 5.11877e-05 1 
918 1 4.70223 7.8974 -10.2954 0.000523909 1 
968 1 7.44356 7.36017 -9.6663 0.000410342 1 
971 1 6.75732 4.65929 -9.02939 0.000362596 1 
1448 1 6.07373 5.73272 -11.5834 0.000108582 1 
967 1 10.1871 6.81533 -9.03037 0.000546325 1 
1443 1 12.2454 7.35114 -10.9412 0.000156182 1 
1444 1 9.5026 7.89562 -11.5842 0.00011104 1 
1445 1 10.8739 5.72927 -12.8657 7.65867e-05 1 
1447 1 8.81558 5.19267 -10.9509 0.000195089 1 
1496 1 11.5595 4.64808 -10.3119 0.000272398 1 
1441 1 14.2997 7.89024 -12.8557 5.81706e-05 1 
1490 1 17.0379 7.3466 -12.2091 9.14908e-05 1 
1492 1 14.9863 6.80792 -10.2941 0.00022128 1 
1493 1 16.3571 4.64196 -11.5737 0.000276549 1 
1494 1 13.6162 5.18595 -12.2225 0.000127568 1 
1489 1 19.7728 6.80322 -11.5644 5.70417e-05 1 
1491 1 17.7245 6.2631 -9.64108 0.000709099 1 
1534 1 20.4555 5.71788 -8.99674 0.000581874 1 
2013 1 21.1419 4.63912 -12.8482 3.95257e-05 1 
1530 1 23.8726 7.87866 -8.98928 0.00525661 1 
1531 1 25.2418 5.72335 -10.2838 0.000343277 1 
1532 1 22.5074 6.26207 -10.9223 0.000137028 1 
2009 1 24.5593 6.80561 -12.8488 5.11877e-05 1 
1527 1 28.6624 7.8974 -10.2954 0.000523909 1 
1564 1 27.9772 5.19398 -9.65636 0.000983993 1 
2008 1 27.295 6.26898 -12.2147 0.000123567 1 
2040 1 30.0339 5.73272 -11.5834 0.000108582 1 
1559 1 34.1473 6.81533 -9.03037 0.000546325 1 
1560 1 31.4037 7.36017 -9.6663 0.000410342 1 
1563 1 30.7174 4.65929 -9.02939 0.000362596 1 
2036 1 33.4627 7.89562 -11.5842 0.00011104 1 
2039 1 32.7757 5.19267 -10.9509 0.000195089 1 
2037 1 34.8341 5.72927 -12.8657 7.65867e-05 1 
2033 1 38.2598 7.89024 -12.8557 5.81706e-05 1 
2035 1 36.2055 7.35114 -10.9412 0.000156182 1 
2057 1 38.9464 6.80792 -10.2941 0.00022128 1 
2059 1 37.5763 5.18595 -12.2225 0.000127568 1 
2061 1 35.5197 4.64808 -10.3119 0.000272398 1 
2055 1 40.998 7.3466 -12.2091 9.14908e-05 1 
2056 1 41.6846 6.2631 -9.64108 0.000709099 1 
2058 1 40.3172 4.64196 -11.5737 0.000276549 1 
921 1 47.8327 7.87866 -8.98928 0.00525661 1 
2054 1 43.7329 6.80322 -11.5644 5.70417e-05 1 
2069 1 46.4675 6.26207 -10.9223 0.000137028 1 
2071 1 44.4156 5.71788 -8.99674 0.000581874 1 
2541 1 45.102 4.63912 -12.8482 3.95257e-05 1 
919 1 1.96412 8.4301 -10.9265 0.000486193 1 
864 1 2.65032 11.1381 -11.5709 0.000159136 1 
866 1 0.594761 10.5932 -9.64364 0.00100043 1 
917 1 3.33297 10.0632 -9.01579 0.00227855 1 
1394 1 4.02028 8.9743 -12.8549 7.49273e-05 1 
1393 1 6.76011 8.43655 -12.221 8.61696e-05 1 
913 1 6.76118 12.231 -9.02047 0.000337029 1 
914 1 8.13206 10.0621 -10.3029 0.000199166 1 
915 1 5.39024 10.6023 -10.9377 0.000105315 1 
1390 1 7.44697 11.1405 -12.8593 4.34602e-05 1 
910 1 11.5602 12.2173 -10.2928 0.000440435 1 
964 1 10.8746 9.51636 -9.66023 0.000484096 1 
1389 1 10.1889 10.5986 -12.2191 8.63971e-05 1 
1440 1 12.9297 10.0542 -11.5742 8.40075e-05 1 
959 1 17.0349 11.1294 -8.99016 0.0020951 1 
960 1 14.2979 11.6721 -9.64521 0.000233543 1 
963 1 13.6147 8.96817 -9.0113 0.0004592 1 
1436 1 16.3507 12.2144 -11.5632 0.000170234 1 
1439 1 15.6684 9.51126 -10.9267 0.000167269 1 
1487 1 21.1359 8.42343 -9.63855 0.000432044 1 
1433 1 21.1381 12.215 -12.8454 1.29972e-05 1 
1435 1 19.0844 11.6723 -10.9204 0.000119881 1 
1437 1 17.7196 10.0512 -12.847 3.61549e-05 1 
1486 1 20.4548 9.50902 -12.2043 2.76691e-05 1 
1488 1 18.4032 8.96731 -10.2797 0.000186835 1 
1528 1 25.9242 8.4301 -10.9265 0.000486193 1 
1482 1 23.8739 11.675 -12.206 5.44486e-05 1 
1483 1 24.5549 10.5932 -9.64364 0.00100043 1 
1484 1 21.819 11.1319 -10.2814 0.000213264 1 
1485 1 23.1901 8.96735 -11.5618 0.0003291 1 
1481 1 26.6104 11.1381 -11.5709 0.000159136 1 
1524 1 29.3504 10.6023 -10.9377 0.000105315 1 
1526 1 27.2931 10.0632 -9.01579 0.00227855 1 
2005 1 27.9804 8.9743 -12.8549 7.49273e-05 1 
2004 1 30.7202 8.43655 -12.221 8.61696e-05 1 
1522 1 30.7213 12.231 -9.02047 0.000337029 1 
1523 1 32.0922 10.0621 -10.3029 0.000199166 1 
2000 1 34.1491 10.5986 -12.2191 8.63971e-05 1 
2001 1 31.4071 11.1405 -12.8593 4.34602e-05 1 
1556 1 34.8347 9.51636 -9.66023 0.000484096 1 
1519 1 35.5203 12.2173 -10.2928 0.000440435 1 
1552 1 38.258 11.6721 -9.64521 0.000233543 1 
1555 1 37.5748 8.96817 -9.0113 0.0004592 1 
2032 1 36.8899 10.0542 -11.5742 8.40075e-05 1 
1551 1 40.995 11.1294 -8.99016 0.0020951 1 
2027 1 43.0445 11.6723 -10.9204 0.000119881 1 
2028 1 40.3109 12.2144 -11.5632 0.000170234 1 
2029 1 41.6797 10.0512 -12.847 3.61549e-05 1 
2031 1 39.6286 9.51126 -10.9267 0.000167269 1 
2053 1 42.3634 8.96731 -10.2797 0.000186835 1 
2052 1 45.096 8.42343 -9.63855 0.000432044 1 
865 1 47.834 11.675 -12.206 5.44486e-05 1 
2025 1 45.0982 12.215 -12.8454 1.29972e-05 1 
2049 1 45.7791 11.1319 -10.2814 0.000213264 1 
2050 1 47.1503 8.96735 -11.5618 0.0003291 1 
2051 1 44.4149 9.50902 -12.2043 2.76691e-05 1 
862 1 4.01911 12.7681 -9.6523 0.00087049 1 
812 1 4.02216 16.5486 -12.8535 6.50036e-05 1 
814 1 1.96573 16.005 -10.9265 0.000421688 1 
815 1 0.598994 14.3807 -12.8472 3.10969e-05 1 
861 1 3.33608 13.8435 -12.2116 9.29374e-05 1 
863 1 1.28172 13.2988 -10.2823 0.000300551 1 
857 1 6.76237 16.01 -12.2175 7.42273e-05 1 
858 1 7.44683 14.9327 -9.66097 0.000405401 1 
859 1 4.70498 15.4714 -10.2934 0.00047851 1 
860 1 6.0759 13.3062 -11.5772 8.17901e-05 1 
911 1 8.81805 12.7645 -10.9397 0.000164169 1 
856 1 9.50424 15.4678 -11.5776 9.24579e-05 1 
907 1 12.2446 14.9218 -10.9315 0.000153485 1 
909 1 10.1888 14.3854 -9.01923 0.000481463 1 
1386 1 10.8743 13.3017 -12.8555 6.04363e-05 1 
1385 1 13.6136 12.7579 -12.2105 4.16786e-05 1 
905 1 13.613 16.5393 -9.0047 0.000476961 1 
906 1 14.9816 14.3781 -10.2837 9.14339e-05 1 
1381 1 17.0339 14.9198 -12.2046 2.59434e-05 1 
1382 1 14.2978 15.4625 -12.8493 2.74245e-05 1 
902 1 18.4001 16.5415 -10.2787 0.000118246 1 
952 1 21.1339 15.9994 -9.6402 0.000447268 1 
955 1 20.4492 13.2946 -8.99842 0.00041553 1 
956 1 17.7159 13.8364 -9.63725 0.000203952 1 
1432 1 19.7688 14.3781 -11.5627 2.1122e-05 1 
951 1 23.8728 15.4551 -8.9917 0.00467709 1 
1427 1 25.9259 16.005 -10.9265 0.000421688 1 
1428 1 23.1902 16.5426 -11.5627 0.000256463 1 
1429 1 24.5591 14.3807 -12.8472 3.10969e-05 1 
1431 1 22.5054 13.8379 -10.9216 0.000110407 1 
1480 1 25.2418 13.2988 -10.2823 0.000300551 1 
1479 1 27.9792 12.7681 -9.6523 0.00087049 1 
1425 1 27.9823 16.5486 -12.8535 6.50035e-05 1 
1476 1 28.6651 15.4714 -10.2934 0.00047851 1 
1477 1 30.036 13.3062 -11.5772 8.17901e-05 1 
1478 1 27.2962 13.8435 -12.2116 9.29374e-05 1 
1520 1 32.7782 12.7645 -10.9397 0.000164169 1 
1473 1 33.4644 15.4678 -11.5776 9.24579e-05 1 
1474 1 30.7225 16.01 -12.2175 7.42273e-05 1 
1475 1 31.4069 14.9327 -9.66097 0.000405401 1 
1518 1 34.1489 14.3854 -9.01923 0.000481463 1 
1997 1 34.8344 13.3017 -12.8555 6.04363e-05 1 
1996 1 37.5738 12.7579 -12.2105 4.16786e-05 1 
1514 1 37.5731 16.5393 -9.0047 0.000476961 1 
1515 1 38.9418 14.3781 -10.2837 9.14339e-05 1 
1516 1 36.2047 14.9218 -10.9315 0.000153485 1 
1993 1 38.2579 15.4625 -12.8493 2.74245e-05 1 
1511 1 42.3602 16.5415 -10.2787 0.000118246 1 
1548 1 41.676 13.8364 -9.63725 0.000203952 1 
1992 1 40.994 14.9198 -12.2046 2.59434e-05 1 
416 1 47.8329 15.4551 -8.9917 0.00467709 1 
1544 1 45.094 15.9994 -9.6402 0.000447268 1 
1547 1 44.4093 13.2946 -8.99842 0.00041553 1 
2021 1 47.1503 16.5426 -11.5627 0.000256463 1 
2023 1 46.4655 13.8379 -10.9216 0.000110407 1 
2024 1 43.7289 14.3781 -11.5627 2.1122e-05 1 
376 1 1.28472 20.8734 -10.2858 0.000287495 1 
410 1 4.02322 20.3425 -9.6545 0.000857116 1 
413 1 3.33662 17.638 -9.01711 0.0022615 1 
414 1 0.59694 18.1686 -9.64634 0.000950129 1 
811 1 2.65279 18.7127 -11.5721 0.000156682 1 
409 1 6.76535 19.8053 -9.02061 0.0003315 1 
807 1 6.07923 20.8805 -11.5782 7.57302e-05 1 
808 1 7.44929 18.7144 -12.858 3.89133e-05 1 
810 1 5.39338 18.1764 -10.9372 0.000109011 1 
855 1 8.13481 17.6355 -10.3001 0.000193385 1 
854 1 10.8758 17.0885 -9.65478 0.000429832 1 
804 1 10.8761 20.8755 -12.8551 5.91501e-05 1 
806 1 8.82103 20.3385 -10.9392 0.000152868 1 
851 1 11.562 19.7908 -10.291 0.000443578 1 
852 1 12.9296 17.6266 -11.57 6.89638e-05 1 
853 1 10.1905 18.1716 -12.216 7.73035e-05 1 
903 1 15.6662 17.0837 -10.9229 0.000115501 1 
848 1 16.3504 19.7881 -11.5629 0.000148378 1 
849 1 13.6144 20.3314 -12.2096 3.35939e-05 1 
850 1 14.2979 19.2453 -9.64317 0.00018434 1 
901 1 17.0336 18.7034 -8.98985 0.0019077 1 
1377 1 20.4535 17.0838 -12.2044 2.23198e-05 1 
897 1 20.4502 20.8695 -9.00164 0.000465233 1 
899 1 19.0838 19.2468 -10.9216 0.000121051 1 
1374 1 21.1384 19.7897 -12.8469 1.24737e-05 1 
1378 1 17.7181 17.6251 -12.8456 2.0961e-05 1 
894 1 25.2448 20.8734 -10.2858 0.000287495 1 
898 1 21.8195 18.7071 -10.2839 0.000206717 1 
948 1 24.5571 18.1686 -9.64634 0.000950129 1 
1373 1 23.8752 19.2498 -12.2078 4.63738e-05 1 
944 1 27.9833 20.3425 -9.6545 0.000857116 1 
947 1 27.2967 17.638 -9.01711 0.0022615 1 
1420 1 30.0394 20.8805 -11.5782 7.57302e-05 1 
1423 1 29.3535 18.1764 -10.9372 0.000109011 1 
1424 1 26.6129 18.7127 -11.5721 0.000156682 1 
1471 1 34.8359 17.0885 -9.65478 0.000429832 1 
943 1 30.7255 19.8053 -9.02061 0.0003315 1 
1419 1 32.7811 20.3385 -10.9392 0.000152868 1 
1421 1 31.4094 18.7144 -12.858 3.89133e-05 1 
1470 1 34.1506 18.1716 -12.216 7.73035e-05 1 
1472 1 32.0949 17.6355 -10.3001 0.000193385 1 
1417 1 34.8362 20.8755 -12.8551 5.91501e-05 1 
1466 1 37.5745 20.3314 -12.2096 3.35939e-05 1 
1467 1 38.258 19.2453 -9.64317 0.00018434 1 
1468 1 35.5221 19.7908 -10.291 0.000443578 1 
1469 1 36.8897 17.6266 -11.57 6.89638e-05 1 
1512 1 39.6263 17.0837 -10.9229 0.000115501 1 
1465 1 40.3105 19.7881 -11.5629 0.000148378 1 
1508 1 43.0439 19.2468 -10.9216 0.000121051 1 
1510 1 40.9937 18.7034 -8.98985 0.0019077 1 
1989 1 41.6782 17.6251 -12.8456 2.0961e-05 1 
1988 1 44.4136 17.0838 -12.2044 2.23198e-05 1 
774 1 47.8354 19.2498 -12.2078 4.63738e-05 1 
1506 1 44.4103 20.8695 -9.00164 0.000465233 1 
1507 1 45.7796 18.7071 -10.2839 0.000206717 1 
1985 1 45.0986 19.7897 -12.8469 1.24737e-05 1 
371 1 3.34222 25.2114 -9.02235 0.00226468 1 
373 1 1.96921 23.5795 -10.9305 0.000395297 1 
768 1 4.02503 24.1236 -12.8564 6.21725e-05 1 
771 1 3.33896 21.4182 -12.2138 8.64076e-05 1 
772 1 0.600997 21.9556 -12.8498 2.43529e-05 1 
368 1 8.13926 25.2101 -10.3033 0.000189385 1 
372 1 4.70948 23.0458 -10.2966 0.000476649 1 
406 1 7.45143 22.5073 -9.66256 0.000392692 1 
767 1 6.76562 23.5847 -12.2198 6.87047e-05 1 
402 1 10.8795 24.6633 -9.65723 0.000397083 1 
405 1 10.1924 21.9603 -9.01939 0.000450132 1 
799 1 12.9322 25.2013 -11.573 6.54101e-05 1 
802 1 12.2468 22.496 -10.9323 0.000148618 1 
803 1 9.5073 23.0422 -11.5791 8.65677e-05 1 
401 1 13.6157 24.1143 -9.00686 0.000457913 1 
798 1 15.6684 24.6584 -10.9258 0.000112857 1 
800 1 14.2993 23.0369 -12.8507 2.65135e-05 1 
845 1 17.0348 22.4942 -12.2063 2.90774e-05 1 
847 1 14.9828 21.9522 -10.2845 7.71353e-05 1 
796 1 17.7199 25.2003 -12.8484 2.24854e-05 1 
841 1 20.4553 24.6589 -12.2078 2.61628e-05 1 
842 1 21.1359 23.5736 -9.64461 0.000493013 1 
843 1 18.4018 24.116 -10.282 0.00012814 1 
844 1 19.7696 21.9527 -11.5652 3.10896e-05 1 
846 1 17.7165 21.4107 -9.63898 0.000225717 1 
840 1 23.1925 24.1174 -11.5666 0.00022878 1 
891 1 25.9293 23.5795 -10.9305 0.000395297 1 
893 1 23.876 23.0289 -8.9971 0.00438347 1 
895 1 22.507 21.4125 -10.9251 0.000114753 1 
1370 1 24.5611 21.9556 -12.8498 2.43529e-05 1 
889 1 27.3023 25.2114 -9.02235 0.00226468 1 
890 1 28.6696 23.0458 -10.2966 0.000476649 1 
1366 1 27.9852 24.1236 -12.8564 6.21725e-05 1 
1369 1 27.2991 21.4182 -12.2138 8.64076e-05 1 
886 1 32.0994 25.2101 -10.3033 0.000189385 1 
939 1 34.1526 21.9603 -9.01939 0.000450132 1 
940 1 31.4115 22.5073 -9.66256 0.000392692 1 
1365 1 30.7257 23.5847 -12.2198 6.87047e-05 1 
1416 1 33.4674 23.0422 -11.5791 8.65677e-05 1 
936 1 34.8396 24.6633 -9.65723 0.000397083 1 
935 1 37.5758 24.1143 -9.00686 0.000457913 1 
1412 1 36.8923 25.2013 -11.573 6.54101e-05 1 
1413 1 38.2594 23.0369 -12.8507 2.65135e-05 1 
1415 1 36.2069 22.496 -10.9323 0.000148618 1 
1464 1 38.943 21.9522 -10.2845 7.71353e-05 1 
1409 1 41.68 25.2003 -12.8484 2.24854e-05 1 
1411 1 39.6285 24.6584 -10.9258 0.000112857 1 
1460 1 42.362 24.116 -10.282 0.00012814 1 
1462 1 40.9949 22.4942 -12.2063 2.90774e-05 1 
1463 1 41.6767 21.4107 -9.63898 0.000225717 1 
375 1 47.8362 23.0289 -8.9971 0.00438347 1 
1457 1 47.1527 24.1174 -11.5666 0.00022878 1 
1458 1 44.4154 24.6589 -12.2078 2.61628e-05 1 
1459 1 45.096 23.5736 -9.64461 0.000493013 1 
1461 1 43.7298 21.9527 -11.5652 3.10896e-05 1 
1504 1 46.4671 21.4125 -10.9251 0.000114753 1 
341 1 3.34146 28.9943 -12.2181 9.65175e-05 1 
342 1 4.02841 27.9173 -9.66009 0.000912302 1 
343 1 1.28883 28.4489 -10.2905 0.000303176 1 
344 1 2.65622 26.2878 -11.5763 0.000165572 1 
346 1 0.601003 25.7424 -9.65178 0.000958393 1 
340 1 6.08224 28.456 -11.5833 8.93836e-05 1 
367 1 6.7718 27.3799 -9.02565 0.000313302 1 
369 1 5.3976 25.7512 -10.9412 0.000124321 1 
764 1 7.45196 26.2894 -12.8616 4.22912e-05 1 
364 1 11.5653 27.3654 -10.2964 0.000463549 1 
365 1 8.82436 27.9133 -10.9447 0.000172523 1 
760 1 10.8783 28.451 -12.8604 6.75097e-05 1 
763 1 10.1933 25.7463 -12.2194 7.53353e-05 1 
397 1 17.0366 26.2783 -8.99444 0.00182845 1 
398 1 14.3014 26.8203 -9.648 0.000218006 1 
759 1 13.6174 27.907 -12.2142 5.08845e-05 1 
795 1 16.3535 27.3639 -11.5669 0.000157608 1 
393 1 20.454 28.4444 -9.0068 0.000620096 1 
394 1 17.7213 28.9872 -9.6437 0.000294679 1 
792 1 21.1409 27.3658 -12.8502 1.81148e-05 1 
794 1 19.0866 26.8222 -10.9256 0.000137385 1 
790 1 22.5105 28.9888 -10.9288 0.000138009 1 
835 1 25.2489 28.4489 -10.2905 0.000303176 1 
837 1 23.878 26.8255 -12.2116 5.47533e-05 1 
838 1 24.5611 25.7424 -9.65178 0.000958393 1 
839 1 21.8224 26.2817 -10.2887 0.000246721 1 
832 1 30.0424 28.456 -11.5833 8.93836e-05 1 
833 1 27.3016 28.9943 -12.2181 9.65175e-05 1 
834 1 27.9885 27.9173 -9.66009 0.000912302 1 
836 1 26.6163 26.2878 -11.5763 0.000165572 1 
887 1 29.3577 25.7512 -10.9412 0.000124321 1 
883 1 32.7845 27.9133 -10.9447 0.000172523 1 
885 1 30.7319 27.3799 -9.02565 0.000313302 1 
1361 1 34.1534 25.7463 -12.2194 7.53353e-05 1 
1362 1 31.4121 26.2894 -12.8616 4.22912e-05 1 
1358 1 34.8384 28.451 -12.8604 6.75097e-05 1 
882 1 35.5254 27.3654 -10.2964 0.000463549 1 
932 1 38.2615 26.8203 -9.648 0.000218006 1 
1357 1 37.5775 27.907 -12.2142 5.08845e-05 1 
928 1 41.6814 28.9872 -9.6437 0.000294679 1 
931 1 40.9967 26.2783 -8.99444 0.00182845 1 
1407 1 43.0467 26.8222 -10.9256 0.000137385 1 
1408 1 40.3136 27.3639 -11.5669 0.000157608 1 
345 1 47.8381 26.8255 -12.2116 5.47533e-05 1 
927 1 44.4141 28.4444 -9.0068 0.000620096 1 
1403 1 46.4706 28.9888 -10.9288 0.000138009 1 
1405 1 45.101 27.3658 -12.8502 1.81148e-05 1 
1456 1 45.7825 26.2817 -10.2887 0.000246721 1 
323 1 0.603289 29.5322 -12.8532 3.17492e-05 1 
90 1 3.34492 32.7896 -9.02826 0.00284527 1 
91 1 0.603807 33.3204 -9.65371 0.000970474 1 
320 1 4.02568 31.7009 -12.861 8.0569e-05 1 
322 1 1.97184 31.1564 -10.9344 0.000436845 1 
318 1 5.39684 33.3296 -10.9483 0.000213747 1 
335 1 8.13837 32.7874 -10.314 0.000337726 1 
337 1 6.76639 31.1614 -12.2263 9.09018e-05 1 
338 1 7.45509 30.0827 -9.67023 0.000417037 1 
339 1 4.71241 30.6221 -10.3026 0.000550247 1 
104 1 6.09323 32.2557 -8.39341 0.00210236 1 
363 1 10.1956 29.5346 -9.02806 0.000420466 1 
332 1 12.9341 32.779 -11.5831 9.90545e-05 1 
333 1 10.1926 33.3244 -12.2292 8.27628e-05 1 
334 1 10.8793 32.2391 -9.6712 0.000320547 1 
336 1 9.50866 30.6181 -11.5872 0.00010307 1 
361 1 12.2495 30.0714 -10.9409 0.00017748 1 
360 1 14.9878 29.5285 -10.2907 0.000237115 1 
357 1 15.6739 32.2366 -10.9321 0.000434602 1 
359 1 13.6187 31.689 -9.02161 0.000707614 1 
755 1 17.0387 30.0715 -12.2102 5.185e-05 1 
756 1 14.3024 30.6139 -12.8561 6.18147e-05 1 
791 1 19.7733 29.5296 -11.5686 4.20016e-05 1 
356 1 18.4079 31.6943 -10.2851 0.000170835 1 
390 1 21.1411 31.151 -9.64705 0.000490637 1 
751 1 20.459 32.2368 -12.2098 2.24136e-05 1 
752 1 17.7239 32.7786 -12.8515 4.12866e-05 1 
788 1 24.5634 29.5322 -12.8532 3.17492e-05 1 
386 1 24.5639 33.3204 -9.65371 0.000970474 1 
389 1 23.8811 30.6052 -9.00085 0.00441685 1 
786 1 25.932 31.1564 -10.9344 0.000436845 1 
787 1 23.1955 31.6948 -11.569 0.000230005 1 
385 1 27.305 32.7896 -9.02826 0.00284527 1 
782 1 29.357 33.3296 -10.9483 0.000213747 1 
784 1 27.9858 31.7009 -12.861 8.0569e-05 1 
831 1 28.6725 30.6221 -10.3026 0.000550247 1 
427 1 30.0534 32.2557 -8.39341 0.00210236 1 
881 1 34.1558 29.5346 -9.02806 0.000420466 1 
825 1 34.1527 33.3244 -12.2292 8.27628e-05 1 
827 1 32.0985 32.7874 -10.314 0.000337726 1 
828 1 33.4688 30.6181 -11.5872 0.00010307 1 
829 1 30.7265 31.1614 -12.2263 9.09018e-05 1 
830 1 31.4152 30.0827 -9.67023 0.000417037 1 
826 1 34.8395 32.2391 -9.6712 0.000320547 1 
878 1 38.9479 29.5285 -10.2907 0.000237115 1 
824 1 36.8942 32.779 -11.5831 9.90545e-05 1 
877 1 37.5788 31.689 -9.02161 0.000707614 1 
879 1 36.2096 30.0714 -10.9409 0.00017748 1 
1354 1 38.2625 30.6139 -12.8561 6.18147e-05 1 
874 1 42.3681 31.6943 -10.2851 0.000170835 1 
875 1 39.634 32.2366 -10.9321 0.000434602 1 
1350 1 41.6841 32.7786 -12.8515 4.12866e-05 1 