ITEM: TIMESTEP
0
ITEM: NUMBER OF ATOMS
5121
ITEM: BOX BOUNDS xy xz yz pp pp ss
-17.675649109 37.118863129 -17.675649109
0 77.157802124 0
-134.3593125601308 149.2243428516688 0
ITEM: ATOMS id type x y z c_csym c_cna 
5688 1 35.6884 3.07738 -14.4807 7.13409e-05 1 
5690 1 35.2453 0.744244 -12.8838 0.000146655 1 
5691 1 36.5767 2.00494 -10.6869 0.00055558 1 
7105 1 -0.988385 14.1209 -13.6202 0.000137114 1 
7231 1 34.361 10.5294 -14.2164 0.00014855 1 
7232 1 -1.43442 11.7878 -12.0161 0.000390687 1 
7233 1 -0.54919 9.22849 -12.9459 0.000247927 1 
7234 1 -1.88538 9.4534 -10.4098 0.0015625 1 
7235 1 -0.580697 10.703 -8.22092 0.0181654 1 
7236 1 -1.01476 8.35935 -6.61238 0.00573159 1 
7362 1 32.5957 6.93922 -14.8188 9.75452e-05 1 
7363 1 33.9168 8.19868 -12.6114 0.00039222 1 
7364 1 34.8033 5.63868 -13.5467 0.000173477 1 
7365 1 -0.994106 6.8959 -11.3455 0.000837205 1 
7366 1 33.4761 5.86966 -11.0071 0.000638171 1 
7367 1 34.791 7.12138 -8.79818 0.0032574 1 
7368 1 35.6866 4.56656 -9.74414 0.00162031 1 
7369 1 34.3604 4.80047 -7.18667 0.0122776 1 
7370 1 35.6938 6.02164 -4.99774 0.0606276 1 
7371 1 -0.525329 3.49478 -5.95463 0.0306513 1 
7372 1 35.3311 3.74661 -3.32314 4.85492 5 
7373 1 -0.308745 5.00788 -0.980686 4.57435 5 
7374 1 35.9096 2.55104 -0.0977321 9.96637 5 
7501 1 32.1544 4.60884 -13.2165 0.000181612 1 
7502 1 33.0365 2.04645 -14.1518 9.12781e-05 1 
7503 1 34.3626 3.30767 -11.9476 0.000254984 1 
7504 1 31.7134 2.27782 -11.6166 0.000324459 1 
7505 1 33.0411 3.54186 -9.40846 0.00113183 1 
7506 1 33.9211 0.974605 -10.3522 0.000771607 1 
7507 1 35.2554 2.24016 -8.15496 0.00533669 1 
7508 1 32.6066 1.20853 -7.81564 0.00725304 1 
7509 1 33.9584 2.49187 -5.596 0.0767757 1 
7510 1 36.219 1.16401 -4.44147 0.174216 1 
7511 1 33.4537 0.146594 -4.15709 0.251648 1 
7512 1 34.7487 1.37476 -2.13229 6.0429 5 
7637 1 30.3869 1.01422 -13.8257 9.51677e-05 1 
8809 1 -1.88356 23.9089 -14.9804 5.76594e-05 1 
8810 1 -0.56755 25.1703 -12.778 0.00021067 1 
8811 1 -1.00776 22.8393 -11.1733 0.000796398 1 
8938 1 -2.3225 21.5762 -13.3759 0.000143812 1 
8939 1 -1.4338 19.0142 -14.3003 7.87324e-05 1 
8940 1 -2.75744 19.246 -11.7675 0.000349556 1 
8941 1 -1.43606 20.5164 -9.56337 0.0021179 1 
8942 1 -0.543371 17.9502 -10.4966 0.00071089 1 
8943 1 -1.85453 18.1981 -7.96321 0.0076832 1 
8944 1 -0.529901 19.5047 -5.72523 0.0713392 1 
8945 1 -0.957649 17.199 -4.23044 0.114846 1 
9071 1 -4.08149 17.9815 -13.9707 8.54618e-05 1 
9072 1 -3.19777 15.4208 -14.8952 6.64874e-05 1 
9073 1 -1.87201 16.6828 -12.6935 0.000212557 1 
9074 1 32.5978 15.6495 -12.3607 0.000284369 1 
9075 1 -3.19267 16.9159 -10.1587 0.00128617 1 
9076 1 -2.31482 14.3499 -11.0876 0.000731262 1 
9077 1 -0.977757 15.619 -8.89896 0.00335736 1 
9078 1 33.4757 14.5764 -8.55409 0.00495254 1 
9079 1 -2.29928 15.8559 -6.39281 0.0203729 1 
9080 1 -1.44401 13.2703 -7.31343 0.0209275 1 
9081 1 -2.7498 13.4818 -4.79285 0.204745 1 
9082 1 -1.3825 14.8335 -2.7175 0.410355 1 
9083 1 -0.579475 12.2122 -3.63775 0.725859 5 
9084 1 -1.35032 12.3232 -1.07505 8.03989 5 
9209 1 31.2725 14.3889 -14.5668 7.45549e-05 1 
9211 1 33.4781 13.089 -13.2871 0.000225243 1 
9212 1 30.8304 12.0582 -12.9566 0.000254606 1 
9213 1 32.1512 13.3161 -10.747 0.00135942 1 
9214 1 33.0312 10.7573 -11.677 0.000854039 1 
9215 1 34.3486 12.0117 -9.48067 0.00293244 1 
9216 1 31.7033 10.9848 -9.12188 0.00411751 1 
9217 1 33.0208 12.226 -6.92469 0.0171389 1 
9218 1 33.8973 9.67421 -7.85334 0.00804087 1 
9219 1 -1.93886 10.9019 -5.64211 0.171237 1 
9220 1 32.5881 9.89909 -5.23564 0.0732411 1 
9221 1 33.8679 11.1482 -2.85333 3.3157 5 
9222 1 34.7596 8.53939 -4.04224 0.178533 1 
9223 1 -1.0529 9.62415 -1.95774 2.94717 5 
9224 1 33.4754 8.5983 -1.35085 6.36933 5 
9351 1 31.7122 9.49909 -13.8866 0.000162888 1 
9352 1 29.0669 8.46839 -13.5618 0.000152467 1 
9353 1 30.3889 9.72966 -11.3443 0.000615737 1 
9354 1 31.2711 7.17007 -12.28 0.000365805 1 
9355 1 32.5877 8.42885 -10.064 0.00178328 1 
9356 1 29.9516 7.4045 -9.73293 0.00136567 1 
9357 1 31.2691 8.66617 -7.49197 0.00801953 1 
9358 1 32.1535 6.10668 -8.45551 0.00242724 1 
9359 1 33.4607 7.34928 -6.22203 0.0248075 1 
9360 1 30.839 6.34771 -5.89602 0.0278238 1 
9361 1 32.1664 7.52663 -3.59985 0.422287 1 
9362 1 33.0704 5.05853 -4.59114 0.183503 1 
9363 1 34.4825 6.1849 -2.30612 5.2296 5 
9364 1 31.8919 5.4606 -1.72343 4.87641 5 
9490 1 29.9483 5.90809 -14.4933 8.97174e-05 1 
9491 1 27.3014 4.87514 -14.1726 0.000109195 1 
9492 1 28.6288 6.13915 -11.9576 0.00033396 1 
9493 1 29.5084 3.57706 -12.8919 0.000157211 1 
9494 1 30.8331 4.84194 -10.676 0.00055417 1 
9495 1 28.1918 3.80743 -10.3582 0.000429173 1 
9496 1 29.5157 5.07755 -8.13215 0.00179073 1 
9497 1 30.3962 2.51187 -9.07689 0.00153993 1 
9498 1 31.7333 3.788 -6.86553 0.0111239 1 
9499 1 29.0888 2.75039 -6.53194 0.0340869 1 
9500 1 30.4287 4.09144 -4.31965 0.364301 1 
9501 1 31.2976 1.46537 -5.30955 0.0754587 1 
9502 1 32.618 2.85556 -3.04209 7.09439 5 
9503 1 29.9585 1.74832 -2.93374 3.88465 5 
9504 1 31.0654 3.03396 -0.719786 7.53407 5 
9505 1 32.1643 0.480068 -1.64949 6.79989 5 
9628 1 25.5311 1.27883 -14.783 7.47937e-05 1 
9629 1 26.862 2.54185 -12.574 0.000177232 1 
9630 1 29.067 1.2437 -11.2923 0.000337189 1 
9631 1 26.4206 0.206042 -10.9759 0.000382218 1 
9632 1 27.7537 1.47191 -8.75834 0.00214577 1 
9633 1 29.9513 0.170244 -7.49275 0.00564621 1 
9634 1 28.6466 0.369123 -4.98014 0.101417 1 
10617 1 -1.43664 34.9591 -14.1206 5.98742e-05 1 
10619 1 -1.88754 32.6247 -12.5202 0.000105893 1 
10620 1 -0.560727 33.8837 -10.314 0.000363759 1 
10621 1 -1.02438 31.5496 -8.71019 0.00186157 1 
10746 1 -3.21088 31.3656 -14.7258 3.19329e-05 1 
10748 1 -1.00742 30.0648 -13.4492 5.66494e-05 1 
10749 1 -3.65908 29.0321 -13.1265 7.23478e-05 1 
10750 1 -2.34214 30.2911 -10.9197 0.000218289 1 
10751 1 -1.45779 27.7312 -11.8493 0.000192876 1 
10752 1 -2.79958 27.9561 -9.31736 0.00102538 1 
10753 1 -1.50254 29.2087 -7.115 0.00373512 1 
10754 1 -0.611935 26.655 -8.03778 0.00501289 1 
10755 1 -1.97798 26.8621 -5.4832 0.0393629 1 
10756 1 -0.754706 28.1245 -3.3269 0.238964 1 
10757 1 -1.15609 25.9255 -1.58157 3.86839 5 
10884 1 -2.77218 26.4709 -14.0541 6.78962e-05 1 
10885 1 -5.4202 25.4381 -13.7312 0.000101551 1 
10886 1 -4.10522 26.6989 -11.5259 0.00031153 1 
10887 1 -3.21347 24.1381 -12.4514 0.000237078 1 
10888 1 -1.90507 25.399 -10.2446 0.00105177 1 
10889 1 -4.54212 24.3686 -9.91909 0.00108687 1 
10890 1 -3.24405 25.6244 -7.69922 0.00578338 1 
10891 1 -2.33798 23.0745 -8.62864 0.00438281 1 
10892 1 -1.05271 24.3196 -6.40662 0.0328144 1 
10893 1 -3.64968 23.3179 -6.05281 0.0178946 1 
10894 1 -2.37736 24.5594 -3.75206 0.139591 1 
10895 1 -1.43909 22.0503 -4.70709 0.136144 1 
10896 1 -2.71002 22.235 -1.98176 3.92382 5 
10897 1 0.635905 20.7409 -0.728134 13.946 5 
11023 1 -4.53108 22.8759 -14.655 6.55597e-05 1 
11024 1 29.941 21.8425 -14.3313 8.47923e-05 1 
11025 1 31.2622 23.105 -12.1279 0.00023661 1 
11026 1 32.1516 20.543 -13.0486 0.000123732 1 
11027 1 -3.64727 21.8086 -10.8429 0.000606246 1 
11028 1 30.8329 20.774 -10.5192 0.000491481 1 
11029 1 -4.96292 22.0478 -8.3048 0.00300175 1 
11030 1 -4.07285 19.4845 -9.22984 0.00173578 1 
11031 1 -2.74462 20.7747 -7.0093 0.0143057 1 
11032 1 31.7423 19.7315 -6.69677 0.0101426 1 
11033 1 -4.02982 21.0361 -4.44835 0.102667 1 
11034 1 -3.14589 18.4765 -5.44086 0.0650945 1 
11035 1 -1.79129 19.8384 -3.06537 3.07797 5 
11036 1 32.6611 18.7396 -2.98112 6.79486 5 
11037 1 -2.21949 17.5789 -1.69031 5.07311 5 
11163 1 28.1801 18.2484 -14.9283 6.57801e-05 1 
11164 1 29.5069 19.5091 -12.7246 0.000156257 1 
11165 1 30.3908 16.9487 -13.6437 0.000100293 1 
11166 1 31.7178 18.2116 -11.4376 0.000348234 1 
11167 1 29.0733 17.1767 -11.1122 0.000380442 1 
11168 1 30.4054 18.4422 -8.90693 0.00181776 1 
11169 1 31.2788 15.878 -9.82317 0.00148802 1 
11170 1 32.6147 17.1544 -7.62326 0.00765002 1 
11171 1 29.9676 16.1007 -7.28623 0.00733029 1 
11172 1 31.3076 17.3888 -5.10938 0.0222975 1 
11173 1 32.166 14.799 -6.00775 0.0271435 1 
11174 1 -3.57052 16.1514 -3.90452 0.0697351 1 
11175 1 30.8743 15.0233 -3.47515 0.162656 1 
11176 1 32.2599 16.4732 -1.48058 3.75692 5 
11177 1 33.1394 13.8778 -2.3695 5.34813 5 
11303 1 27.7443 15.9166 -13.3207 0.000152889 1 
11304 1 28.6254 13.3573 -14.2422 0.000100161 1 
11305 1 29.9516 14.6172 -12.0311 0.00033847 1 
11306 1 27.3085 13.5865 -11.7107 0.000546184 1 
11307 1 28.6362 14.8459 -9.49095 0.00187866 1 
11308 1 29.5104 12.288 -10.4125 0.00110834 1 
11309 1 30.8303 13.5407 -8.19177 0.00614596 1 
11310 1 28.1984 12.5238 -7.85768 0.0064606 1 
11311 1 29.5204 13.7637 -5.6125 0.0348595 1 
11312 1 30.3863 11.2151 -6.53876 0.0189461 1 
11313 1 31.7414 12.433 -4.33952 0.183136 1 
11314 1 29.0717 11.4564 -3.94046 0.156631 1 
11315 1 30.4823 12.643 -1.76392 6.99045 5 
11316 1 31.2528 10.0499 -2.70768 2.02746 5 
11436 1 25.9773 12.3254 -13.9208 0.000130722 1 
11437 1 26.8589 9.76623 -14.8456 8.03153e-05 1 
11438 1 28.1867 11.0276 -12.6334 0.000286754 1 
11439 1 25.5398 9.99514 -12.317 0.000374421 1 
11440 1 26.8727 11.2583 -10.0999 0.00178631 1 
11441 1 27.7489 8.69924 -11.0255 0.000627486 1 
11442 1 29.0726 9.96367 -8.79357 0.00236051 1 
11443 1 26.4326 8.92974 -8.4953 0.00252123 1 
11444 1 27.7592 10.2067 -6.24795 0.0145043 1 
11445 1 28.6323 7.63998 -7.18926 0.00259877 1 
11446 1 29.9504 8.88883 -4.93022 0.0514746 1 
11447 1 27.3259 7.89375 -4.64973 0.25518 1 
11448 1 28.5635 9.23416 -2.29539 1.67684 5 
11449 1 29.5639 6.64897 -3.27573 0.97573 1 
11450 1 27.8495 6.8002 -1.09928 7.40145 5 
11563 1 24.2084 8.73314 -14.5254 0.000110512 1 
11565 1 26.4207 7.43567 -13.2433 0.000207685 1 
11566 1 23.7697 6.40053 -12.9278 0.000243199 1 
11567 1 25.1021 7.66367 -10.7187 0.000881688 1 
11568 1 25.9835 5.10341 -11.6453 0.000358385 1 
11569 1 27.3116 6.36957 -9.42486 0.000769692 1 
11570 1 24.6657 5.32805 -9.12698 0.00239721 1 
11571 1 25.9911 6.59615 -6.90289 0.0232412 1 
11572 1 26.8803 4.03449 -7.82883 0.00749192 1 
11573 1 28.1992 5.32351 -5.58898 0.0876181 1 
11574 1 25.5195 4.23476 -5.343 0.107522 1 
11575 1 26.7409 5.53616 -3.21612 0.907418 1 
11576 1 27.6997 2.9452 -4.06937 0.324258 1 
11577 1 28.9337 4.29122 -2.01251 4.36791 5 
11578 1 26.3035 3.41868 -1.43732 6.08489 5 
11685 1 24.6517 3.84008 -13.8551 0.000127812 1 
11686 1 21.9982 2.8048 -13.5356 0.000108136 1 
11687 1 23.3321 4.06547 -11.3343 0.000467973 1 
11688 1 24.2122 1.50452 -12.259 0.000271352 1 
11689 1 25.5477 2.76801 -10.0498 0.000717837 1 
11690 1 22.8968 1.72746 -9.7428 0.0011796 1 
11691 1 24.2293 2.98636 -7.53873 0.00782074 1 
11692 1 25.1103 0.428624 -8.45395 0.00266359 1 
11693 1 26.4344 1.68085 -6.23426 0.0360889 1 
11694 1 23.8285 0.658443 -5.9239 0.0263428 1 
11695 1 25.1353 1.933 -3.62935 0.291079 1 
11696 1 27.4181 0.662851 -2.39686 5.08664 5 
11793 1 22.8786 0.243694 -14.4627 8.42588e-05 1 
11794 1 21.5577 0.468052 -11.9408 0.000295121 1 
12318 1 -0.534592 48.3424 -14.8522 7.57948e-05 1 
12319 1 -0.973862 46.0102 -13.2527 0.000200232 1 
12445 1 -2.7458 42.416 -13.8641 0.000123706 1 
12446 1 -1.41239 43.6768 -11.6566 0.000351036 1 
12447 1 -0.534645 41.1164 -12.5842 0.00016163 1 
12448 1 -1.84939 41.3417 -10.0617 0.000674131 1 
12449 1 -0.514539 42.6038 -7.8428 0.0070415 1 
12450 1 -0.961249 40.2537 -6.24596 0.0388544 1 
12576 1 -1.86705 39.8552 -14.7915 7.13366e-05 1 
12577 1 -4.52109 38.8212 -14.4707 8.18291e-05 1 
12578 1 -3.18652 40.0808 -12.2688 0.000255365 1 
12579 1 -2.31166 37.5199 -13.1938 0.00013763 1 
12580 1 -0.976958 38.7813 -10.9866 0.000356959 1 
12581 1 -3.62961 37.7443 -10.672 0.000554194 1 
12582 1 -2.28755 39.0054 -8.46535 0.00297049 1 
12583 1 -1.42456 36.4449 -9.38716 0.00113731 1 
12584 1 -2.72114 36.6796 -6.85965 0.0159459 1 
12585 1 -1.38279 37.957 -4.56167 0.168748 1 
12586 1 -0.541403 35.3849 -5.55582 0.0235703 1 
12587 1 -1.84923 35.6667 -2.98538 4.56728 5 
12588 1 0.909743 36.6864 -0.596403 14.7684 5 
12715 1 -4.96683 36.4856 -12.8732 0.000172336 1 
12716 1 -4.09067 33.9256 -13.7985 7.62802e-05 1 
12717 1 -2.76082 35.1841 -11.5941 0.000262292 1 
12718 1 -5.41749 34.1502 -11.2734 0.000418159 1 
12719 1 -4.07893 35.4085 -9.06965 0.0021348 1 
12720 1 -3.21826 32.8493 -9.99103 0.000698066 1 
12721 1 -1.88169 34.1088 -7.788 0.00492616 1 
12722 1 -4.55651 33.0706 -7.46145 0.00827319 1 
12723 1 -3.18995 34.3378 -5.28761 0.0655706 1 
12724 1 -2.37906 31.77 -6.1836 0.0127846 1 
12725 1 -1.02923 33.0511 -4.01629 0.0876358 1 
12726 1 -3.76354 32.0015 -3.64955 0.164354 1 
12727 1 -2.37432 33.4029 -1.61312 5.86596 5 
12728 1 -1.63736 30.7078 -2.45234 0.337728 1 
12855 1 -6.74632 32.8933 -13.4752 7.95816e-05 1 
12856 1 -5.8639 30.3333 -14.4031 3.8723e-05 1 
12857 1 -4.5418 31.5917 -12.1986 0.000127626 1 
12858 1 29.9219 30.5599 -11.877 0.000152776 1 
12859 1 -5.87657 31.8152 -9.67241 0.000590111 1 
12860 1 -4.9947 29.2581 -10.5989 0.000309851 1 
12861 1 -3.6846 30.514 -8.39147 0.000793859 1 
12862 1 -6.33764 29.4802 -8.07055 0.00135601 1 
12863 1 -5.04185 30.7331 -5.86394 0.00399385 1 
12864 1 -4.15102 28.1755 -6.78 0.00656376 1 
12865 1 -2.88451 29.4264 -4.59052 0.0381383 1 
12866 1 -5.51499 28.3912 -4.22956 0.0378732 1 
12867 1 -4.27812 29.7202 -2.06595 0.581405 5 
12868 1 -3.35041 27.1193 -2.86127 0.220338 1 
12994 1 28.6018 29.3015 -14.0799 6.03791e-05 1 
12996 1 -6.30961 27.9999 -12.8052 0.000126318 1 
12997 1 28.1591 26.9681 -12.4849 0.000216181 1 
12998 1 29.4747 28.2272 -10.2807 0.00056088 1 
12999 1 30.3693 25.6668 -11.2062 0.000415191 1 
13000 1 -5.44053 26.9253 -8.9955 0.00145589 1 
13001 1 29.0387 25.8959 -8.6851 0.00179903 1 
13002 1 30.3397 27.1478 -6.46348 0.00579408 1 
13003 1 31.2544 24.6007 -7.38253 0.00482209 1 
13004 1 -4.57388 25.8528 -5.13021 0.0218302 1 
13005 1 29.923 24.8271 -4.86052 0.0138754 1 
13006 1 -5.93584 26.0431 -2.60018 0.124429 1 
13007 1 -4.9591 23.5528 -3.49208 0.0609889 1 
13008 1 -3.67455 24.7203 -1.1525 1.99579 5 
13131 1 26.8393 25.7066 -14.6857 7.65868e-05 1 
13133 1 29.0511 24.405 -13.4097 0.000144157 1 
13134 1 26.4018 23.3714 -13.0888 0.000204324 1 
13135 1 27.723 24.6336 -10.8904 0.00056325 1 
13136 1 28.6178 22.0706 -11.8081 0.000305394 1 
13137 1 29.9397 23.3359 -9.60359 0.00103667 1 
13138 1 27.294 22.2979 -9.29358 0.00123073 1 
13139 1 28.6152 23.5688 -7.09298 0.00385555 1 
13140 1 29.5182 21.0068 -7.99941 0.00204946 1 
13141 1 30.8458 22.2906 -5.77811 0.00965726 1 
13142 1 28.2018 21.2463 -5.50302 0.0188278 1 
13143 1 29.5334 22.5499 -3.26568 0.188417 1 
13144 1 30.4264 19.9802 -4.21065 0.0433613 1 
13145 1 31.7804 21.294 -1.93892 7.279 5 
13146 1 29.0195 20.2111 -1.83958 1.16259 1 
13147 1 31.2995 18.9861 -0.61154 6.73832 5 
13266 1 27.293 20.8093 -14.0087 0.00011071 1 
13267 1 24.6427 19.7769 -13.6854 0.000147874 1 
13268 1 25.969 21.0367 -11.4883 0.000330669 1 
13269 1 26.86 18.4764 -12.4033 0.000203422 1 
13270 1 28.189 19.7366 -10.201 0.00063041 1 
13271 1 25.5413 18.7064 -9.88144 0.000814348 1 
13272 1 26.869 19.9627 -7.6861 0.00443129 1 
13273 1 27.7581 17.4043 -8.58164 0.00273322 1 
13274 1 29.0922 18.6699 -6.39588 0.00968244 1 
13275 1 26.4381 17.6349 -6.03837 0.0332752 1 
13276 1 27.7576 18.9098 -3.91707 0.115827 1 
13277 1 28.6643 16.3297 -4.75231 0.0510725 1 
13278 1 29.9802 17.6269 -2.62678 0.360882 1 
13279 1 27.3764 16.698 -2.22129 5.8165 5 
13280 1 29.6857 15.3273 -0.909134 9.49465 5 
13391 1 25.5306 17.2161 -14.605 9.09782e-05 1 
13392 1 22.8789 16.1843 -14.2798 7.9213e-05 1 
13393 1 24.2106 17.4455 -12.0819 0.000326035 1 
13394 1 25.0955 14.8849 -12.9998 0.000210142 1 
13395 1 26.4291 16.1466 -10.7939 0.000726568 1 
13396 1 23.7807 15.1163 -10.4783 0.000970617 1 
13397 1 25.1221 16.3855 -8.2699 0.00616006 1 
13398 1 26.0006 13.8196 -9.18475 0.00486495 1 
13399 1 27.3281 15.0829 -6.93861 0.0179192 1 
13400 1 24.7097 14.0663 -6.68443 0.0532706 1 
13401 1 26.0438 15.3392 -4.34355 0.230517 1 
13402 1 26.8873 12.7871 -5.2939 0.0637149 1 
13403 1 28.2311 14.0236 -2.99967 2.09548 5 
13404 1 25.4756 13.1291 -2.7015 3.77088 5 
13405 1 27.5993 11.8294 -1.27455 6.08701 5 
13509 1 21.1102 12.5916 -14.8763 5.72198e-05 1 
13510 1 22.4422 13.8528 -12.6773 0.000254239 1 
13511 1 23.3253 11.2925 -13.6001 0.000182985 1 
13512 1 24.6598 12.5546 -11.3954 0.000589034 1 
13513 1 22.0021 11.5197 -11.0797 0.000953735 1 
13514 1 23.3444 12.7845 -8.88128 0.00288262 1 
13515 1 24.2212 10.223 -9.79707 0.00167728 1 
13516 1 25.565 11.4908 -7.58254 0.0146543 1 
13517 1 22.8919 10.4424 -7.29705 0.0251808 1 
13518 1 24.2697 11.7258 -5.11653 0.330477 1 
13519 1 25.1095 9.15281 -5.9866 0.0696713 1 
13520 1 26.4373 10.5003 -3.74562 0.455247 1 
13521 1 23.6282 9.37362 -3.60231 0.63139 1 
13522 1 24.8476 10.6918 -1.55561 8.54165 5 
13523 1 25.7563 8.10828 -2.37862 2.21325 5 
13524 1 26.6559 9.21362 -0.123008 7.75755 5 
13621 1 20.6685 10.2589 -13.2755 0.000212116 1 
13622 1 21.5541 7.69939 -14.2034 0.000102973 1 
13623 1 22.8857 8.95991 -12.0024 0.000502933 1 
13624 1 20.2252 7.9246 -11.6798 0.000468191 1 
13625 1 21.5553 9.18239 -9.48976 0.00285673 1 
13626 1 22.4451 6.62453 -10.4103 0.00102137 1 
13627 1 23.7766 7.88655 -8.20922 0.00691423 1 
13628 1 21.1036 6.84066 -7.90259 0.00727218 1 
13629 1 22.3954 8.09699 -5.7364 0.0608243 1 
13630 1 23.3206 5.54185 -6.63271 0.0232123 1 
13631 1 24.5719 6.80799 -4.46401 0.271427 1 
13632 1 21.9922 5.787 -4.09001 0.26275 1 
13633 1 23.092 7.26249 -1.78587 3.72236 5 
13634 1 24.1616 4.59271 -2.75511 1.08901 1 
13723 1 18.8984 6.66671 -13.8764 0.000125176 1 
13724 1 19.7841 4.10625 -14.8071 4.93558e-05 1 
13725 1 21.1137 5.36526 -12.6077 0.000202293 1 
13726 1 18.4572 4.3333 -12.2786 0.000290862 1 
13727 1 19.7837 5.5885 -10.0855 0.00113079 1 
13728 1 20.6753 3.02965 -11.0143 0.00039337 1 
13729 1 22.0079 4.28668 -8.82215 0.0028696 1 
13730 1 19.3548 3.25603 -8.48975 0.00192541 1 
13731 1 20.6928 4.50574 -6.2988 0.0115168 1 
13732 1 21.5962 1.95198 -7.23064 0.00737095 1 
13733 1 22.933 3.21731 -5.00298 0.0613593 1 
13734 1 20.308 2.17339 -4.73982 0.0429109 1 
13735 1 21.692 3.33869 -2.48957 0.669173 1 
13736 1 22.5718 0.874986 -3.42555 0.182067 1 
13737 1 23.952 1.91996 -1.07353 3.42784 5 
13818 1 17.1308 3.07499 -14.4797 6.28744e-05 1 
13820 1 19.3428 1.77168 -13.2108 0.000100276 1 
13821 1 16.6886 0.740852 -12.8823 0.000129613 1 
13822 1 18.0196 1.99961 -10.6838 0.000533329 1 
13823 1 20.2423 0.692293 -9.42397 0.00153247 1 
13824 1 18.9348 0.918807 -6.92244 0.00884531 1 
14147 1 -1.86035 55.7933 -14.6054 6.39108e-05 1 
14148 1 -0.528875 57.0515 -12.4047 0.00013364 1 
14149 1 -0.960075 54.7182 -10.7985 0.000408281 1 
14243 1 -2.29611 53.4606 -13.0027 0.000161102 1 
14244 1 -1.41515 50.9013 -13.9262 0.000121491 1 
14245 1 -2.73269 51.1283 -11.4024 0.000599407 1 
14246 1 -1.38952 52.387 -9.19343 0.00288813 1 
14247 1 -0.518365 49.8275 -10.1112 0.0011851 1 
14248 1 -1.82772 50.0531 -7.59567 0.00817355 1 
14249 1 -0.481876 51.3161 -5.33804 0.0256568 1 
14250 1 -0.943911 49.0104 -3.76545 0.487284 1 
14356 1 -4.06919 49.8694 -13.6056 0.00018324 1 
14357 1 -3.187 47.3098 -14.5324 0.000111227 1 
14358 1 -1.8538 48.5691 -12.326 0.000371687 1 
14359 1 -4.51056 47.5352 -12.0112 0.000516252 1 
14360 1 -3.17344 48.7938 -9.80874 0.00181501 1 
14361 1 -2.29297 46.2358 -10.7307 0.000911363 1 
14362 1 -0.959552 47.4963 -8.50988 0.00211581 1 
14363 1 -3.61937 46.4553 -8.22439 0.00790869 1 
14364 1 -2.28277 47.7144 -6.00465 0.0696568 1 
14365 1 -1.40242 45.1612 -6.92001 0.023242 1 
14366 1 -2.82259 45.3656 -4.48799 0.345558 1 
14367 1 -1.63022 46.6413 -2.39928 2.52614 5 
14368 1 -0.64924 44.0926 -3.23369 1.02564 1 
14489 1 -5.84316 46.277 -14.21 0.000111378 1 
14491 1 -3.62718 44.9761 -12.9371 0.000244308 1 
14492 1 -6.28533 43.9423 -12.6158 0.000221446 1 
14493 1 -4.95309 45.1987 -10.4212 0.00108549 1 
14494 1 -4.06638 42.6408 -11.3447 0.000466751 1 
14495 1 -2.73103 43.8993 -9.14065 0.00247239 1 
14496 1 -5.39195 42.862 -8.83261 0.00331934 1 
14497 1 -4.07809 44.1107 -6.64788 0.0293438 1 
14498 1 -3.16871 41.5601 -7.55062 0.00914978 1 
14499 1 -1.87564 42.8008 -5.35792 0.125352 1 
14500 1 -4.46448 41.797 -5.00861 0.0666556 1 
14501 1 -3.23528 43.1758 -2.75647 1.17424 1 
14502 1 -2.2609 40.5145 -3.63314 0.308133 1 
14503 1 -1.09315 42.0037 -1.43437 5.99827 5 
14504 1 -3.44413 40.5017 -1.07819 3.39755 5 
14629 1 -7.61533 42.6846 -14.8132 5.87874e-05 1 
14631 1 -5.40118 41.3822 -13.5437 0.000108303 1 
14632 1 -8.05791 40.3504 -13.2173 0.000108117 1 
14633 1 -6.72509 41.6075 -11.0225 0.000433135 1 
14634 1 -5.84281 39.0465 -11.9492 0.000284949 1 
14635 1 -4.50273 40.3049 -9.7529 0.00123298 1 
14636 1 -7.15884 39.2729 -9.43177 0.00151136 1 
14637 1 -5.8037 40.5329 -7.23851 0.00771388 1 
14638 1 -4.93427 37.971 -8.15544 0.00365442 1 
14639 1 -3.56961 39.2409 -5.93263 0.0279275 1 
14640 1 -6.22437 38.1987 -5.6675 0.0183654 1 
14641 1 -4.82708 39.4613 -3.43145 0.181006 1 
14642 1 -3.99088 36.9197 -4.36554 0.15747 1 
14643 1 -2.56494 38.0832 -1.89383 4.84046 5 
14644 1 -5.22876 37.2189 -1.91981 12.074 5 
14771 1 -7.17702 37.7886 -14.1466 7.98833e-05 1 
14772 1 27.2856 36.7572 -13.8195 8.84279e-05 1 
14773 1 -8.50108 38.0147 -11.623 0.000380598 1 
14774 1 -7.6245 35.4529 -12.5491 0.000206598 1 
14775 1 -6.2872 36.71 -10.3525 0.000873877 1 
14776 1 28.1673 35.6757 -10.0274 0.00104534 1 
14777 1 -7.60232 36.9318 -7.84323 0.00353265 1 
14778 1 -6.7441 34.3709 -8.75427 0.00277525 1 
14779 1 -5.38512 35.63 -6.56059 0.0162264 1 
14780 1 29.044 34.5821 -6.252 0.0198281 1 
14781 1 -6.68539 35.8493 -4.10558 0.188623 1 
14782 1 -5.92479 33.2805 -4.92801 0.105152 1 
14783 1 -4.54566 34.5586 -2.88123 6.98552 5 
14784 1 -7.33744 33.5079 -2.26898 3.33866 5 
14785 1 -5.62916 34.9865 -0.516599 7.73799 5 
14786 1 -5.19941 32.309 -0.956102 4.83599 5 
14908 1 28.1658 34.1957 -14.7488 4.16378e-05 1 
14909 1 25.511 33.1645 -14.423 3.55325e-05 1 
14910 1 26.8355 34.4218 -12.2217 0.000196169 1 
14911 1 27.7163 31.862 -13.1504 7.52641e-05 1 
14912 1 29.0403 33.1175 -10.9494 0.000409149 1 
14913 1 26.3801 32.0879 -10.621 0.000383518 1 
14914 1 27.701 33.3372 -8.42233 0.00286616 1 
14915 1 28.5826 30.7842 -9.35079 0.000636091 1 
14916 1 -7.21992 32.0315 -7.14826 0.00343261 1 
14917 1 27.2348 31.0059 -6.82045 0.00366734 1 
14918 1 28.5553 32.2376 -4.61399 0.0612149 1 
14919 1 29.4293 29.6952 -5.53646 0.00947749 1 
14920 1 -6.39962 30.9691 -3.32609 0.160465 1 
14921 1 28.0463 29.8704 -3.03101 0.15819 1 
14922 1 29.3976 30.9698 -0.882381 8.25351 5 
14923 1 30.2488 28.5244 -1.68274 0.454075 1 
15040 1 25.0616 30.8312 -12.8256 8.74089e-05 1 
15041 1 25.9492 28.2696 -13.7569 9.70453e-05 1 
15042 1 27.2664 29.5299 -11.5529 0.000414733 1 
15043 1 24.6132 28.4989 -11.2319 0.00062415 1 
15044 1 25.9217 29.7596 -9.0202 0.00441506 1 
15045 1 26.8244 27.1978 -9.96569 0.00122799 1 
15046 1 28.1341 28.4537 -7.75794 0.00297082 1 
15047 1 25.48 27.428 -7.45794 0.00757219 1 
15048 1 26.7715 28.6742 -5.24688 0.0129117 1 
15049 1 27.6979 26.125 -6.17537 0.00514243 1 
15050 1 28.9804 27.3571 -3.94228 0.0235385 1 
15051 1 26.3394 26.366 -3.67414 0.14083 1 
15052 1 27.5856 27.6444 -1.37896 0.876049 1 
15053 1 28.5626 25.0811 -2.3382 0.348103 1 
15054 1 26.9262 25.1929 -0.0834152 6.08903 5 
15163 1 23.2958 27.2367 -13.4324 0.000131727 1 
15164 1 24.1873 24.6735 -14.3618 9.94396e-05 1 
15165 1 25.5076 25.935 -12.1648 0.000316206 1 
15166 1 22.8528 24.9011 -11.8405 0.000420296 1 
15167 1 24.1692 26.162 -9.65104 0.0015002 1 
15168 1 25.0714 23.5979 -10.5735 0.000796368 1 
15169 1 26.39 24.862 -8.38266 0.00209902 1 
15170 1 23.7315 23.8194 -8.06864 0.00477033 1 
15171 1 25.0473 25.0887 -5.89707 0.0192347 1 
15172 1 25.9621 22.5235 -6.79618 0.0086277 1 
15173 1 27.2798 23.8077 -4.60587 0.0506921 1 
15174 1 24.5865 22.7524 -4.33437 0.0963356 1 
15175 1 25.8207 24.0049 -2.23434 0.784155 1 
15176 1 26.819 21.4803 -3.08189 0.310155 1 
15177 1 28.0068 22.7236 -0.961453 2.1017 5 
15278 1 21.5346 23.6404 -14.0346 0.0001415 1 
15279 1 22.4264 21.0781 -14.9598 7.5956e-05 1 
15280 1 23.7496 22.3384 -12.7651 0.000272757 1 
15281 1 21.0963 21.3072 -12.4341 0.000387321 1 
15282 1 22.4153 22.5659 -10.2467 0.00129606 1 
15283 1 23.3179 20.0063 -11.1649 0.000596274 1 
15284 1 24.64 21.2632 -8.97186 0.00164601 1 
15285 1 21.9925 20.2397 -8.64454 0.0039809 1 
15286 1 23.2941 21.4867 -6.44787 0.0228976 1 
15287 1 24.2213 18.942 -7.35598 0.00771307 1 
15288 1 25.5316 20.1915 -5.18498 0.0496941 1 
15289 1 22.9193 19.1846 -4.79511 0.0841888 1 
15290 1 24.1962 20.5192 -2.66198 5.21047 5 
15291 1 25.1334 17.9033 -3.44284 2.61092 5 
15292 1 26.4087 19.3119 -1.33099 7.21561 5 
15385 1 19.7753 20.046 -14.6306 7.62763e-05 1 
15387 1 21.9904 18.7456 -13.3578 0.000131241 1 
15388 1 19.3387 17.7143 -13.0267 0.00012196 1 
15389 1 20.6652 18.9785 -10.8312 0.000706659 1 
15390 1 21.5573 16.4151 -11.7557 0.000311866 1 
15391 1 22.8948 17.6798 -9.56267 0.00183389 1 
15392 1 20.2397 16.6534 -9.23397 0.00189781 1 
15393 1 21.5919 17.9275 -7.04721 0.0152359 1 
15394 1 22.4762 15.3547 -7.96876 0.00700747 1 
15395 1 23.8326 16.6476 -5.73799 0.0505104 1 
15396 1 21.1994 15.6123 -5.49013 0.118573 1 
15397 1 22.5161 16.9834 -3.17515 5.85541 5 
15398 1 23.4412 14.348 -4.2492 0.681002 1 
15399 1 24.7296 15.6972 -1.62888 11.7827 5 
15400 1 22.0573 14.6337 -1.99643 9.75296 5 
15401 1 23.198 12.7219 -0.471661 8.67938 5 
15488 1 20.2254 15.1522 -13.9513 8.2834e-05 1 
15489 1 17.5716 14.1198 -13.62 0.000135163 1 
15490 1 18.9016 15.3828 -11.4241 0.000434385 1 
15491 1 19.7844 12.8192 -12.3497 0.000318818 1 
15492 1 21.1219 14.084 -10.1584 0.00134303 1 
15493 1 18.4556 13.046 -9.8262 0.00263188 1 
15494 1 19.8082 14.3197 -7.6508 0.0154135 1 
15495 1 20.6725 11.7439 -8.57299 0.00888789 1 
15496 1 22.0388 13.0046 -6.38674 0.0737602 1 
15497 1 19.3019 11.9603 -6.10556 0.0662023 1 
15498 1 20.6309 13.2488 -4.02414 0.327093 1 
15499 1 21.4494 10.6399 -4.85687 0.257684 1 
15500 1 22.74 11.959 -2.90522 7.14134 5 
15501 1 19.9639 10.9643 -2.21551 6.18599 5 
15502 1 22.099 10.0182 -0.896797 8.79694 5 
15581 1 18.4557 11.5593 -14.5473 8.08383e-05 1 
15582 1 15.8028 10.5282 -14.2163 0.000144711 1 
15583 1 17.1259 11.7862 -12.0157 0.000387839 1 
15584 1 18.0113 9.22648 -12.9451 0.000241097 1 
15585 1 19.335 10.4838 -10.7498 0.00166533 1 
15586 1 16.6755 9.45116 -10.4092 0.00155218 1 
15587 1 17.9797 10.7006 -8.22023 0.0181405 1 
15588 1 18.8848 8.14474 -9.15699 0.00336332 1 
15589 1 20.1919 9.39265 -6.99477 0.0240756 1 
15590 1 17.546 8.3559 -6.61144 0.00582667 1 
15591 1 18.8419 9.6034 -4.45114 0.148024 1 
15592 1 19.7738 7.05119 -5.36737 0.0349776 1 
15593 1 21.0253 8.3857 -3.17564 0.882686 1 
15594 1 18.4939 7.15478 -2.85021 0.537933 1 
15595 1 19.8791 8.07979 -0.692518 7.53096 5 
15596 1 20.821 5.7186 -1.56325 2.44962 5 
15668 1 14.0381 6.93832 -14.8192 9.48748e-05 1 
15669 1 15.3591 8.19705 -12.6111 0.000387882 1 
15670 1 16.2458 5.63659 -13.5461 0.000166875 1 
15671 1 17.567 6.89293 -11.3443 0.000826879 1 
15672 1 14.9193 5.86749 -11.0069 0.000639103 1 
15673 1 16.2336 7.11825 -8.79738 0.0032578 1 
15674 1 17.1296 4.56223 -9.7423 0.00159168 1 
15675 1 18.4542 5.8086 -7.55067 0.00223853 1 
15676 1 15.8038 4.79624 -7.18552 0.0122097 1 
15677 1 17.136 6.01704 -4.99643 0.060549 1 
15678 1 18.0361 3.48763 -5.95156 0.0303387 1 
15679 1 19.4068 4.68825 -3.76858 0.200132 1 
15680 1 16.7725 3.74126 -3.32146 4.85385 5 
15681 1 18.2518 5.00355 -0.978796 4.58078 5 
15682 1 19.0614 2.45106 -2.19392 1.09748 5 
15683 1 17.3477 2.54778 -0.0975359 9.9684 5 
15748 1 13.5977 4.60775 -13.2172 0.000176334 1 
15749 1 14.4799 2.04484 -14.1523 8.21069e-05 1 
15750 1 15.8061 3.30478 -11.9468 0.000244976 1 
15751 1 13.1579 2.27654 -11.618 0.000304803 1 
15752 1 14.4855 3.53904 -9.4084 0.00111849 1 
15753 1 15.3658 0.970578 -10.3513 0.000728136 1 
15754 1 16.6994 2.23394 -8.15224 0.00525172 1 
15755 1 14.0525 1.20489 -7.81616 0.00725335 1 
15756 1 15.4023 2.48647 -5.59448 0.0778069 1 
15757 1 17.6612 1.15428 -4.43767 0.178192 1 
15758 1 14.8973 0.140071 -4.15679 0.251504 1 
15759 1 16.1882 1.36877 -2.13123 6.03783 5 
15760 1 18.4515 0.103739 -0.929465 3.62566 5 
15815 1 11.8308 1.01389 -13.828 8.81393e-05 1 
15934 1 -1.44042 66.8476 -13.7519 0.000100281 1 
15935 1 -0.5503 64.285 -14.6815 6.61364e-05 1 
15936 1 -1.88053 64.5123 -12.1601 0.000287246 1 
15937 1 -0.56264 65.7746 -9.95928 0.00108407 1 
15938 1 -0.994865 63.4379 -8.37703 0.00157492 1 
15996 1 -3.20206 63.2514 -14.358 8.71104e-05 1 
15998 1 -0.986571 61.9489 -13.0856 0.000159562 1 
15999 1 -3.63876 60.9153 -12.7617 0.000228656 1 
16000 1 -2.31501 62.1739 -10.5695 0.000688039 1 
16001 1 -1.41843 59.6122 -11.4869 0.000228461 1 
16002 1 -2.74365 59.8363 -8.96924 0.00148534 1 
16003 1 -1.41435 61.0968 -6.78997 0.0128976 1 
16004 1 -0.510102 58.5335 -7.69488 0.00446746 1 
16005 1 -1.84191 58.7531 -5.20157 0.077833 1 
16006 1 -0.540721 60.0871 -3.17119 1.19759 5 
16007 1 -0.858268 58.2325 -1.24043 6.26813 5 
16077 1 -4.96382 59.6563 -14.9571 6.57567e-05 1 
16079 1 -2.74706 58.3539 -13.6836 0.000105123 1 
16080 1 -5.39974 57.3231 -13.3555 0.000117454 1 
16081 1 -4.06998 58.5814 -11.1619 0.000460928 1 
16082 1 -3.17962 56.0209 -12.0814 0.000224431 1 
16083 1 -1.84619 57.278 -9.88229 0.000575392 1 
16084 1 -4.49356 56.2529 -9.55901 0.00164502 1 
16085 1 -3.16396 57.5082 -7.35316 0.0120197 1 
16086 1 -2.26781 54.951 -8.27258 0.0046542 1 
16087 1 -0.925186 56.1896 -6.07387 0.0251434 1 
16088 1 -3.54966 55.2093 -5.72199 0.0700535 1 
16089 1 -2.19946 56.4755 -3.54501 2.01469 5 
16090 1 -1.32751 53.8534 -4.38253 0.262382 1 
16091 1 -2.72586 53.8361 -1.83659 9.36724 5 
16092 1 -2.39688 56.156 -0.857062 15.0551 5 
16177 1 -4.51311 54.7621 -14.2796 6.25854e-05 1 
16178 1 -7.16732 53.7313 -13.9509 8.64108e-05 1 
16179 1 -5.83359 54.9923 -11.7537 0.000298536 1 
16180 1 -4.95103 52.43 -12.6793 0.000232983 1 
16181 1 -3.61071 53.69 -10.4802 0.000827462 1 
16182 1 -6.27066 52.6613 -10.1581 0.00170259 1 
16183 1 -4.91313 53.9276 -7.96449 0.00929022 1 
16184 1 -4.0479 51.3551 -8.89021 0.00384964 1 
16185 1 -2.67984 52.6258 -6.68927 0.0381126 1 
16186 1 -5.36318 51.5694 -6.40773 0.0588815 1 
16187 1 -3.95888 52.8814 -4.26038 0.630918 1 