ITEM: TIMESTEP
0
ITEM: NUMBER OF ATOMS
5501
ITEM: BOX BOUNDS xy xz yz pp pp ss
0 56.025549493 21.186132161
0 88.233796269 0
-112.3880971023479 120.7243775795252 0
ITEM: ATOMS id type x y z c_csym c_cna 
1078 1 9.99677 0.718172 -14.2429 5.61069e-05 1 
1079 1 7.87415 1.22791 -12.3894 0.000132614 1 
1080 1 9.52038 0.275137 -10.2534 0.000664466 1 
1081 1 7.39503 0.782617 -8.39747 0.00324977 1 
1082 1 6.89792 0.354819 -4.37942 0.0630047 1 
1179 1 6.22809 2.18248 -14.5239 4.10714e-05 1 
1180 1 3.64034 1.03568 -14.9546 3.45512e-05 1 
1181 1 4.10687 2.69007 -12.668 0.000121407 1 
1182 1 5.75106 1.7346 -10.5356 0.000498362 1 
1183 1 3.16655 0.582973 -10.9627 0.000353789 1 
1184 1 3.62953 2.23645 -8.68508 0.00134098 1 
1185 1 5.27402 1.28024 -6.5497 0.00584063 1 
1186 1 3.17343 1.75123 -4.7035 0.0725421 1 
1187 1 4.87931 0.791168 -2.47454 0.72962 1 
1188 1 2.65269 1.4098 -0.926168 2.89122 5 
1285 1 2.46245 3.64478 -14.8025 3.69497e-05 1 
1286 1 1.52082 1.54104 -13.0983 8.06892e-05 1 
1287 1 35.1831 4.15141 -12.9462 8.51101e-05 1 
1288 1 1.98676 3.19514 -10.8127 0.000338146 1 
1289 1 1.04812 1.08159 -9.10974 0.00080313 1 
1290 1 1.51003 2.72953 -6.83624 0.00669073 1 
1291 1 0.596472 0.602461 -5.13627 0.0192221 1 
1292 1 1.01774 2.28058 -2.92957 0.251115 1 
1293 1 0.144022 0.173313 -1.34281 2.41363 5 
1593 1 21.0599 1.03572 -14.9549 3.44953e-05 1 
1594 1 20.586 0.583073 -10.9629 0.000349804 1 
1692 1 18.9404 1.54099 -13.0986 7.95916e-05 1 
1693 1 16.3535 0.394866 -13.5287 6.78281e-05 1 
1694 1 16.8217 2.04494 -11.2438 0.000168809 1 
1695 1 18.4675 1.0817 -9.10996 0.000796114 1 
1696 1 16.3454 1.58393 -7.25896 0.00506767 1 
1697 1 18.0159 0.602738 -5.13633 0.0193661 1 
1698 1 15.8628 1.12353 -3.31056 0.232223 1 
1699 1 17.5632 0.174156 -1.3432 2.41645 5 
1798 1 15.1754 3.0045 -13.3796 5.33342e-05 1 
1799 1 12.5862 1.86101 -13.8116 6.26174e-05 1 
1800 1 14.2344 0.901535 -11.6742 0.000173814 1 
1801 1 13.0554 3.512 -11.5269 0.000191 1 
1802 1 14.703 2.55074 -9.39116 0.000724909 1 
1803 1 12.112 1.41349 -9.82369 0.000676461 1 
1804 1 13.7583 0.458066 -7.68415 0.00519534 1 
1805 1 12.5817 3.05513 -7.53901 0.00681057 1 
1806 1 14.211 2.10732 -5.38052 0.05771 1 
1807 1 11.6182 0.995477 -5.81369 0.0422072 1 
1808 1 12.081 2.59361 -3.40405 0.675329 1 
1809 1 13.6875 1.34958 -1.37564 7.86298 5 
1810 1 10.9326 0.532317 -1.80003 6.90444 5 
1909 1 11.4072 4.47139 -13.6603 5.87235e-05 1 
1910 1 8.81691 3.32798 -14.0927 4.43956e-05 1 
1911 1 10.4639 2.37135 -11.9591 0.000140993 1 
1912 1 9.28365 4.98259 -11.8065 0.000179745 1 
1913 1 10.9314 4.02054 -9.67672 0.000761134 1 
1914 1 8.33805 2.88237 -10.1075 0.000467691 1 
1915 1 9.9821 1.92518 -7.97348 0.00573181 1 
1916 1 8.80049 4.53355 -7.83058 0.00276854 1 
1917 1 10.4498 3.54425 -5.70138 0.0678299 1 
1918 1 7.84868 2.43437 -6.12538 0.0198228 1 
1919 1 9.47569 1.53868 -3.90916 0.216036 1 
1920 1 8.30253 4.05809 -3.87245 0.502669 1 
1921 1 10.0892 3.38669 -1.44682 4.86399 5 
1922 1 7.43404 2.06243 -2.02356 1.20291 1 
1923 1 7.5559 4.07813 -0.0985612 7.31148 5 
2022 1 7.6387 5.93858 -13.9379 5.80767e-05 1 
2023 1 5.04998 4.79235 -14.3705 4.77249e-05 1 
2024 1 6.69369 3.83846 -12.2378 0.00012713 1 
2025 1 5.51613 6.45089 -12.0808 0.000183197 1 
2026 1 7.15607 5.4973 -9.95307 0.000670224 1 
2027 1 4.56997 4.34927 -10.3821 0.000602844 1 
2028 1 6.21039 3.39236 -8.2594 0.00211527 1 
2029 1 5.02546 6.01948 -8.09453 0.00628202 1 
2030 1 6.66137 5.0523 -5.99346 0.0375844 1 
2031 1 4.08285 3.89511 -6.41603 0.0186814 1 
2032 1 5.72826 2.9267 -4.28224 0.168571 1 
2033 1 4.51831 5.63068 -4.21424 0.194422 1 
2034 1 6.09012 4.737 -2.20662 1.39155 1 
2035 1 3.56969 3.49095 -2.58338 0.744138 1 
2036 1 5.12071 2.71851 -0.520872 6.79874 5 
2134 1 3.87385 7.4018 -14.2143 6.56688e-05 1 
2135 1 36.1255 6.25398 -14.6479 4.63351e-05 1 
2136 1 2.92982 5.30138 -12.5129 0.000159661 1 
2137 1 36.5953 7.91054 -12.3544 0.000237496 1 
2138 1 3.39492 6.96376 -10.2199 0.000843161 1 
2139 1 35.6516 5.80745 -10.6548 0.000568752 1 
2140 1 2.44677 4.85696 -8.52574 0.00287163 1 
2141 1 36.118 7.46949 -8.35331 0.00688529 1 
2142 1 2.88887 6.5479 -6.23673 0.0442945 1 
2143 1 35.1624 5.35544 -6.66073 0.0233461 1 
2144 1 1.9506 4.41306 -4.59881 0.0973499 1 
2145 1 35.618 7.00211 -4.29766 0.12218 1 
2146 1 2.51477 6.07312 -2.2948 4.95643 5 
2147 1 1.69113 4.01838 -0.55314 6.4633 5 
2234 1 34.9497 8.86152 -14.4913 5.42335e-05 1 
2316 1 33.7733 0.394951 -13.5285 6.91494e-05 1 
2349 1 30.006 1.86115 -13.8114 6.38462e-05 1 
2350 1 31.6542 0.901659 -11.674 0.000178319 1 
2351 1 29.5317 1.41362 -9.82358 0.000688812 1 
2352 1 31.1782 0.458123 -7.68395 0.00520542 1 
2353 1 29.0378 0.99566 -5.81355 0.0423182 1 
2354 1 28.3517 0.533336 -1.80016 6.90645 5 
2422 1 27.4164 0.71835 -14.2428 5.59275e-05 1 
2423 1 26.2366 3.32811 -14.0927 4.49711e-05 1 
2424 1 27.8836 2.37151 -11.959 0.000144431 1 
2425 1 25.2937 1.2281 -12.3895 0.000133466 1 
2426 1 26.9399 0.275428 -10.2534 0.000673924 1 
2427 1 25.7575 2.88245 -10.1077 0.000477058 1 
2428 1 27.4015 1.92528 -7.9735 0.0057932 1 
2429 1 24.8144 0.782927 -8.39744 0.00327101 1 
2430 1 25.2678 2.43451 -6.12519 0.0198135 1 
2431 1 26.8947 1.53901 -3.90894 0.216705 1 
2432 1 24.3171 0.355054 -4.3786 0.0631591 1 
2433 1 24.8529 2.0622 -2.02285 1.20338 1 
2527 1 23.6477 2.18258 -14.5241 4.12619e-05 1 
2528 1 22.4696 4.79235 -14.3709 4.6688e-05 1 
2529 1 24.1132 3.83851 -12.2381 0.000127911 1 
2530 1 21.5264 2.69007 -12.6683 0.000119612 1 
2531 1 23.1705 1.73475 -10.5358 0.000496712 1 
2532 1 21.9893 4.34921 -10.3826 0.000600505 1 
2533 1 23.6296 3.39239 -8.25958 0.00211768 1 
2534 1 21.0489 2.23654 -8.68529 0.00133111 1 
2535 1 22.6933 1.28045 -6.5496 0.00587998 1 
2536 1 21.5019 3.89509 -6.41627 0.0187445 1 
2537 1 23.1473 2.92676 -4.28217 0.169242 1 
2538 1 20.5928 1.75134 -4.70333 0.0733766 1 
2539 1 22.2988 0.790949 -2.4734 0.736645 1 
2540 1 20.9888 3.4915 -2.5838 0.746405 1 
2541 1 22.54 2.71959 -0.521046 6.80499 5 
2542 1 20.072 1.41052 -0.926842 2.9032 5 
2639 1 19.882 3.64471 -14.803 3.57693e-05 1 
2640 1 18.7056 6.25382 -14.6487 4.31241e-05 1 
2641 1 20.3493 5.30123 -12.5136 0.000156092 1 
2642 1 17.7632 4.15123 -12.9467 8.21755e-05 1 
2643 1 19.4061 3.19506 -10.8132 0.000333235 1 
2644 1 18.2315 5.8072 -10.6556 0.000561218 1 
2645 1 19.8659 4.85679 -8.52632 0.00286497 1 
2646 1 17.2876 3.69687 -8.95768 0.00112383 1 
2647 1 18.9293 2.72962 -6.83642 0.00673583 1 
2648 1 17.7419 5.35554 -6.66118 0.0233932 1 
2649 1 19.3695 4.41331 -4.59921 0.0976363 1 
2650 1 16.7955 3.22283 -4.98892 0.0547383 1 
2651 1 18.4369 2.28119 -2.93 0.252115 1 
2652 1 17.3183 4.81886 -2.69903 5.17687 5 
2653 1 19.1104 4.01894 -0.553622 6.46659 5 
2654 1 16.3365 2.70493 -0.947915 7.22652 5 
2752 1 14.9405 7.71553 -14.927 3.26066e-05 1 
2753 1 16.588 6.76041 -12.7914 0.000123391 1 
2754 1 13.9982 5.61444 -13.2267 7.06611e-05 1 
2755 1 15.6458 4.65585 -11.092 0.000261304 1 
2756 1 14.4717 7.26333 -10.936 0.000485933 1 
2757 1 16.1193 6.30394 -8.7967 0.00360304 1 
2758 1 13.5282 5.15592 -9.24072 0.00162672 1 
2759 1 15.1704 4.19241 -7.09611 0.010797 1 
2760 1 14.0165 6.77589 -6.94744 0.0162557 1 
2761 1 15.6397 5.79523 -4.74507 0.0810003 1 
2762 1 13.0633 4.65666 -5.23146 0.054529 1 
2763 1 14.6875 3.66341 -3.00873 2.77905 5 
2764 1 13.5766 6.25178 -2.91102 5.55268 5 
2765 1 12.8453 4.12581 -0.931896 12.3377 5 
2864 1 12.8214 8.22387 -13.0695 0.000118998 1 
2865 1 10.2294 7.08194 -13.5045 8.8022e-05 1 
2866 1 11.8773 6.12236 -11.373 0.000299855 1 
2867 1 10.6997 8.73472 -11.2138 0.000578676 1 
2868 1 12.3533 7.7638 -9.08635 0.00245898 1 
2869 1 9.75043 6.63456 -9.52304 0.00142534 1 
2870 1 11.4033 5.65193 -7.39863 0.00762632 1 
2871 1 10.2176 8.28004 -7.25122 0.0136251 1 
2872 1 11.8882 7.25432 -5.16063 0.0735776 1 
2873 1 9.25423 6.17161 -5.56701 0.0521173 1 
2874 1 10.9234 5.12991 -3.50765 0.905007 1 
2875 1 9.72094 7.86859 -3.40866 0.215589 1 
2876 1 11.3912 6.65825 -1.39021 9.53007 5 
2877 1 8.66963 5.86823 -1.8872 7.18444 5 
2976 1 9.05292 9.69181 -13.3464 9.77355e-05 1 
2977 1 6.46245 8.54839 -13.7805 6.901e-05 1 
2978 1 8.10588 7.59625 -11.6478 0.000324875 1 
2979 1 6.93061 10.208 -11.4865 0.000286242 1 
2980 1 8.57248 9.25843 -9.35706 0.00286798 1 
2981 1 5.97994 8.11544 -9.79017 0.00112146 1 
2982 1 7.61376 7.16086 -7.67382 0.00848146 1 
2983 1 6.44037 9.79922 -7.50178 0.0123311 1 
2984 1 8.0728 8.86695 -5.4273 0.0591636 1 
2985 1 5.47033 7.73975 -5.82128 0.0683688 1 
2986 1 7.08883 6.81849 -3.81653 0.290282 1 
2987 1 5.97008 9.45682 -3.46217 0.128054 1 
2988 1 7.66961 8.60382 -1.44903 6.27552 5 
2989 1 5.10133 7.35936 -1.86087 4.88432 5 
3088 1 5.28727 11.1556 -13.6225 8.24893e-05 1 
3089 1 2.69871 10.0088 -14.0568 7.74452e-05 1 
3090 1 4.34201 9.06129 -11.9199 0.000301146 1 
3091 1 3.16925 11.6655 -11.7589 0.000397931 1 
3092 1 4.80883 10.7274 -9.62045 0.0023781 1 
3093 1 37.0655 9.57023 -10.0541 0.00177263 1 
3094 1 3.85637 8.6415 -7.92122 0.0100732 1 
3095 1 2.70069 11.2293 -7.73438 0.00551506 1 
3096 1 4.32558 10.3219 -5.57831 0.0188711 1 
3097 1 36.5982 9.1293 -6.015 0.0161139 1 
3098 1 3.36908 8.23419 -3.87876 0.0914836 1 
3099 1 37.0887 10.7892 -3.62313 0.0781618 1 
3100 1 3.9137 9.90856 -1.50336 4.48684 5 
3101 1 36.1033 8.59252 -1.92881 5.69539 5 
3197 1 36.3627 12.6126 -13.8995 7.40918e-05 1 
3198 1 35.4217 10.5152 -12.1947 0.000259346 1 
3199 1 35.8975 12.1659 -9.89129 0.00109516 1 
3200 1 34.9643 10.0592 -8.18338 0.0051192 1 
3201 1 35.4584 11.696 -5.85031 0.0163632 1 
3202 1 35.0415 11.1648 -1.62408 5.40447 5 
3313 1 34.2417 2.04501 -11.2435 0.000171489 1 
3314 1 34.7077 3.69688 -8.95732 0.00112602 1 
3315 1 33.7655 1.58376 -7.25875 0.0050768 1 
3316 1 34.2159 3.22244 -4.98863 0.054609 1 
3317 1 33.283 1.12306 -3.31029 0.232424 1 
3318 1 33.7566 2.70392 -0.947537 7.22675 5 
3342 1 32.5953 3.00464 -13.3792 5.51421e-05 1 
3343 1 31.4181 5.61466 -13.2261 7.42307e-05 1 
3344 1 33.0658 4.65599 -11.0915 0.000269385 1 
3345 1 30.4753 3.51209 -11.5267 0.000199601 1 
3346 1 32.123 2.5507 -9.39096 0.000739259 1 
3347 1 30.9481 5.1558 -9.24064 0.00168339 1 
3348 1 32.5905 4.19211 -7.09597 0.0108567 1 
3349 1 30.0014 3.05497 -7.53902 0.00688193 1 
3350 1 31.631 2.10713 -5.38037 0.0578289 1 
3351 1 30.4832 4.65615 -5.23171 0.0550992 1 
3352 1 32.1077 3.66279 -3.00855 2.77835 5 
3353 1 29.5007 2.59368 -3.40404 0.678813 1 
3354 1 31.1072 1.34874 -1.37561 7.86513 5 
3355 1 30.2656 4.12518 -0.93192 12.3479 5 
3411 1 28.827 4.47155 -13.6601 6.05931e-05 1 
3412 1 27.6491 7.08214 -13.5042 9.18993e-05 1 
3413 1 29.297 6.12251 -11.3727 0.000313256 1 
3414 1 26.7032 4.98268 -11.8066 0.000186989 1 
3415 1 28.351 4.02051 -9.67681 0.000793046 1 
3416 1 27.1696 6.63452 -9.52337 0.00149473 1 
3417 1 28.8227 5.65142 -7.39927 0.00787346 1 
3418 1 26.2196 4.53333 -7.83098 0.00281066 1 
3419 1 27.869 3.54397 -5.70166 0.0681635 1 
3420 1 26.6727 6.17092 -5.56816 0.0521447 1 
3421 1 28.3424 5.12953 -3.50884 0.909755 1 
3422 1 25.7216 4.0582 -3.87183 0.503957 1 
3423 1 27.509 3.38813 -1.44669 4.86244 5 
3424 1 26.0879 5.86988 -1.88687 7.18963 5 
3425 1 24.9758 4.07804 -0.0992621 7.3087 5 
3513 1 25.0584 5.93869 -13.9381 5.90348e-05 1 
3514 1 23.8821 8.54846 -13.781 6.9744e-05 1 
3515 1 25.5253 7.59642 -11.648 0.000343408 1 
3516 1 22.9356 6.45083 -12.0814 0.000183857 1 
3517 1 24.5753 5.49721 -9.95356 0.000681303 1 
3518 1 23.399 8.11532 -9.79104 0.00115945 1 
3519 1 25.0323 7.16045 -7.67481 0.00857957 1 
3520 1 22.4444 6.01931 -8.0951 0.00632612 1 
3521 1 24.0802 5.05217 -5.99361 0.037894 1 
3522 1 22.8883 7.73972 -5.82192 0.0687773 1 
3523 1 24.5072 6.81871 -3.81712 0.29211 1 
3524 1 21.937 5.63072 -4.2147 0.194586 1 
3525 1 23.5093 4.73734 -2.20707 1.39336 1 
3526 1 22.5204 7.35898 -1.86161 4.8838 5 
3625 1 21.2935 7.40175 -14.215 6.42034e-05 1 
3626 1 20.1183 10.0088 -14.0582 7.36607e-05 1 
3627 1 21.7615 9.06116 -11.9211 0.000308013 1 
3628 1 19.1754 7.91024 -12.3556 0.00023276 1 
3629 1 20.8142 6.96352 -10.2208 0.000847299 1 
3630 1 19.6455 9.56971 -10.0559 0.0017948 1 
3631 1 21.2751 8.64127 -7.92219 0.0101608 1 
3632 1 18.6976 7.46911 -8.35438 0.00686294 1 
3633 1 20.3075 6.54759 -6.23759 0.0441563 1 
3634 1 19.177 9.12874 -6.01634 0.0158145 1 
3635 1 20.7866 8.23351 -3.87991 0.0906847 1 
3636 1 18.1969 7.00234 -4.29815 0.122619 1 
3637 1 19.9334 6.07345 -2.29524 4.95613 5 
3638 1 18.6797 8.59249 -1.92976 5.69741 5 
3736 1 17.5299 8.86137 -14.4926 4.76727e-05 1 
3737 1 16.3538 11.467 -14.3357 4.01022e-05 1 
3738 1 18.0019 10.5149 -12.1969 0.00025498 1 
3739 1 15.4129 9.36737 -12.6333 0.000138371 1 
3740 1 17.0617 8.41262 -10.4956 0.00107156 1 
3741 1 15.8902 11.0145 -10.3355 0.000686176 1 
3742 1 17.5442 10.0584 -8.1854 0.00506927 1 
3743 1 14.956 8.9013 -8.64055 0.00403374 1 
3744 1 16.6066 7.93744 -6.46998 0.0210332 1 
3745 1 15.4599 10.5259 -6.34491 0.0272423 1 
3746 1 17.1224 9.56994 -4.11706 0.129209 1 
3747 1 14.5241 8.36534 -4.66022 0.113453 1 
3748 1 16.0856 7.35334 -2.30228 7.13149 5 
3749 1 15.0043 9.90995 -2.40345 7.09062 5 
3846 1 13.7641 10.3229 -14.7702 4.09032e-05 1 
3847 1 12.5876 12.929 -14.6137 4.07283e-05 1 
3848 1 14.237 11.9733 -12.4746 0.000133449 1 
3849 1 11.6451 10.8326 -12.9107 0.000157038 1 
3850 1 13.2964 9.87203 -10.7757 0.000647973 1 
3851 1 12.1187 12.4826 -10.6154 0.00079966 1 
3852 1 13.779 11.5128 -8.48195 0.00411466 1 
3853 1 11.1721 10.3834 -8.92594 0.00489727 1 
3854 1 12.8432 9.38575 -6.81324 0.0161514 1 
3855 1 11.6446 12.0304 -6.65464 0.0292975 1 
3856 1 13.3451 10.9938 -4.59151 0.101364 1 
3857 1 10.6989 9.93156 -5.01598 0.0423279 1 
3858 1 12.3724 8.85069 -2.98913 6.47299 5 
3859 1 11.2192 11.5852 -2.83134 0.393653 1 
3860 1 12.8646 10.4485 -0.87239 5.71707 5 
3861 1 10.3411 9.43794 -1.21994 5.62852 5 
3959 1 8.82089 14.3926 -14.8931 2.44567e-05 1 
3960 1 10.4683 13.4401 -12.7528 0.000155647 1 
3961 1 7.87704 12.2997 -13.1881 0.000102812 1 
3962 1 9.52282 11.3475 -11.053 0.000507927 1 
3963 1 8.34627 13.9567 -10.8908 0.000605061 1 
3964 1 9.99068 13.0052 -8.7617 0.00336279 1 
3965 1 7.39748 11.8735 -9.18972 0.00185158 1 
3966 1 9.03933 10.94 -7.06429 0.025079 1 
3967 1 7.86059 13.5372 -6.87886 0.00486289 1 
3968 1 9.51146 12.6273 -4.73867 0.190114 1 
3969 1 6.90259 11.4795 -5.18023 0.035501 1 
3970 1 8.5789 10.5403 -3.14151 0.215887 1 
3971 1 7.42919 13.1658 -2.87188 0.516316 1 
3972 1 9.29278 12.1208 -0.952654 7.63541 5 
3973 1 6.56296 11.3013 -1.07755 5.16736 5 
4072 1 6.7011 14.9036 -13.0317 8.46388e-05 1 
4073 1 4.11186 13.759 -13.4655 8.83873e-05 1 
4074 1 5.75671 12.814 -11.3245 0.000439271 1 
4075 1 4.58259 15.4121 -11.1664 0.000264083 1 
4076 1 6.226 14.4725 -9.01803 0.00141889 1 
4077 1 3.64158 13.3213 -9.45287 0.00138647 1 
4078 1 5.27592 12.3949 -7.30164 0.00685426 1 
4079 1 4.11651 14.974 -7.137 0.00438911 1 
4080 1 5.7436 14.0619 -4.95814 0.0309043 1 
4081 1 3.18367 12.8813 -5.38666 0.0169904 1 
4082 1 4.81085 12.0068 -3.18573 0.156157 1 
4083 1 3.62678 14.5396 -3.04596 0.105368 1 
4084 1 5.12457 13.6895 -0.821303 2.18653 5 
4085 1 37.4951 12.4071 -1.17579 2.16228 5 
4184 1 37.7752 16.3597 -13.3114 6.13384e-05 1 
4185 1 35.1864 15.2141 -13.7445 5.08107e-05 1 
4186 1 36.8347 14.2643 -11.6005 0.00020527 1 
4187 1 35.6576 16.8624 -11.4482 0.000151344 1 
4188 1 37.3082 15.9137 -9.29883 0.000719573 1 
4189 1 36.3809 13.8102 -7.58054 0.00553608 1 
4190 1 35.1989 16.4113 -7.43839 0.00261635 1 
4191 1 36.8626 15.4559 -5.27516 0.0189181 1 
4192 1 35.9528 13.3237 -3.50648 0.0970987 1 
4339 1 34.7389 4.81829 -2.69869 5.17724 5 
4350 1 32.3604 7.71572 -14.9261 3.80453e-05 1 
4351 1 34.0079 6.76069 -12.7905 0.000129254 1 
4352 1 32.8327 9.36771 -12.6318 0.000152168 1 
4353 1 34.4817 8.41308 -10.4941 0.00108256 1 
4354 1 31.8915 7.2636 -10.9352 0.000500335 1 
4355 1 33.5395 6.30402 -8.79617 0.00365213 1 
4356 1 32.3758 8.9016 -8.63951 0.00416707 1 
4357 1 34.0273 7.93746 -6.4694 0.0215992 1 
4358 1 31.4364 6.77527 -6.94792 0.0167979 1 
4359 1 33.0603 5.79456 -4.74502 0.0815954 1 
4360 1 31.9438 8.36365 -4.66218 0.116867 1 
4361 1 33.5074 7.3528 -2.30208 7.14226 5 
4362 1 30.9971 6.25102 -2.91162 5.55474 5 
4404 1 31.184 10.3229 -14.7691 5.19765e-05 1 
4406 1 30.2413 8.22414 -13.0687 0.000130538 1 
4407 1 29.0648 10.8326 -12.9098 0.000177797 1 
4408 1 30.7159 9.87247 -10.7742 0.000705258 1 
4409 1 28.1191 8.73501 -11.2133 0.000614747 1 
4410 1 29.7728 7.76382 -9.08621 0.00256426 1 
4411 1 28.5905 10.3839 -8.92485 0.00525554 1 
4412 1 30.2621 9.38526 -6.81353 0.0166978 1 
4413 1 27.6359 8.2797 -7.25225 0.014064 1 
4414 1 29.3068 7.25302 -5.16267 0.0752748 1 
4415 1 28.116 9.93045 -5.01834 0.0439744 1 
4416 1 29.7899 8.84847 -2.99361 6.44424 5 
4417 1 27.1388 7.86746 -3.4103 0.216719 1 
4418 1 28.8109 6.65735 -1.39199 9.52867 5 
4419 1 27.7596 9.43628 -1.22142 5.63623 5 
4495 1 26.4726 9.69194 -13.3463 0.000101352 1 
4496 1 25.2964 12.2997 -13.1887 0.000103048 1 
4497 1 26.9419 11.3477 -11.0526 0.000525045 1 
4498 1 24.35 10.2081 -11.4871 0.000294946 1 
4499 1 25.9913 9.25889 -9.35694 0.00311776 1 
4500 1 24.8157 11.8737 -9.18999 0.00193349 1 
4501 1 26.4563 10.9415 -7.06276 0.0280853 1 
4502 1 23.8582 9.79911 -7.50295 0.0127722 1 
4503 1 25.4901 8.86574 -5.42959 0.0594118 1 
4504 1 24.3169 11.4794 -5.18188 0.0388538 1 
4505 1 25.9931 10.5361 -3.14785 0.22746 1 
4506 1 23.3859 9.45708 -3.46262 0.132224 1 
4507 1 25.0866 8.60725 -1.44806 6.30455 5 
4508 1 23.9686 11.3055 -1.07547 5.19902 5 
4606 1 22.7068 11.1557 -13.6237 8.05763e-05 1 
4607 1 21.5311 13.7596 -13.4677 8.31e-05 1 
4608 1 23.1758 12.8141 -11.3263 0.000451402 1 
4609 1 20.5888 11.6653 -11.7611 0.000416838 1 
4610 1 22.2278 10.7273 -9.62187 0.0024794 1 
4611 1 21.0609 13.321 -9.45602 0.00163398 1 
4612 1 22.6931 12.3952 -7.30267 0.00749853 1 
4613 1 20.1197 11.2286 -7.73643 0.00570839 1 
4614 1 21.7426 10.3221 -5.5787 0.019453 1 
4615 1 20.6007 12.8809 -5.3876 0.0178271 1 
4616 1 22.2236 12.0082 -3.18373 0.165386 1 
4617 1 19.6654 10.7886 -3.62511 0.0771539 1 
4618 1 21.3268 9.90506 -1.5065 4.54434 5 
4619 1 20.0684 12.4037 -1.17541 2.20963 5 
4718 1 18.9427 12.613 -13.9016 6.16359e-05 1 
4719 1 17.7661 15.216 -13.7465 2.7755e-05 1 
4720 1 19.4148 14.2648 -11.6044 0.00023212 1 
4721 1 16.827 13.1172 -12.0391 0.000126172 1 
4722 1 18.478 12.1652 -9.89482 0.00118649 1 
4723 1 17.3031 14.7633 -9.74162 0.00064157 1 
4724 1 18.9617 13.8086 -7.58564 0.00596279 1 
4725 1 16.3764 12.6534 -8.03546 0.00380062 1 
4726 1 18.038 11.6952 -5.85299 0.0162304 1 
4727 1 16.8787 14.2843 -5.74634 0.0278629 1 
4728 1 18.5297 13.3227 -3.50832 0.097482 1 
4729 1 15.9811 12.1272 -4.02165 0.247958 1 
4730 1 17.6172 11.1672 -1.62794 5.43446 5 
4731 1 16.4758 13.8491 -1.79975 7.09037 5 
4732 1 15.2699 11.7677 -0.438703 8.71226 5 
4831 1 15.1772 14.0716 -14.1796 2.78492e-05 1 
4832 1 14.0001 16.6759 -14.0255 2.19611e-05 1 
4833 1 15.6491 15.7203 -11.8841 0.000100171 1 
4834 1 13.0594 14.579 -12.3177 0.000139091 1 
4835 1 14.7129 13.6194 -10.1778 0.000529384 1 
4836 1 13.5304 16.226 -10.0219 0.000606932 1 
4837 1 15.1904 15.2601 -7.88416 0.00336009 1 
4838 1 12.594 14.1289 -8.32046 0.00450081 1 
4839 1 14.2732 13.1404 -6.18946 0.0396647 1 
4840 1 13.0583 15.7797 -6.04063 0.0242695 1 
4841 1 14.7937 14.797 -3.98422 0.12353 1 
4842 1 12.0992 13.6849 -4.41815 0.311632 1 
4843 1 13.8146 12.6774 -2.479 0.768555 1 
4844 1 12.7066 15.237 -2.23534 4.03511 5 
4845 1 11.9054 12.9527 -0.522619 6.74337 5 
4943 1 11.4109 15.5342 -14.4588 2.91577e-05 1 
4944 1 10.2339 18.1385 -14.3062 2.03717e-05 1 
4945 1 11.8818 17.184 -12.1633 7.74162e-05 1 
4946 1 9.29152 16.0448 -12.5974 8.07231e-05 1 
4947 1 10.9391 15.092 -10.4554 0.000742416 1 
4948 1 9.76213 17.6943 -10.3002 0.000390239 1 
4949 1 11.4057 16.7432 -8.15493 0.00485729 1 
4950 1 8.81334 15.6135 -8.58597 0.00355941 1 
4951 1 10.4471 14.6593 -6.4708 0.0230764 1 
4952 1 9.28575 17.2667 -6.26052 0.0278342 1 
4953 1 10.8983 16.2722 -4.16315 0.251201 1 
4954 1 8.33073 15.1909 -4.54115 0.0795666 1 
4955 1 10.0573 14.3855 -2.24574 4.80263 5 
4956 1 8.68845 16.819 -2.24837 5.98657 5 
5053 1 7.64418 16.9966 -14.7397 1.90708e-05 1 
5054 1 6.46746 19.6 -14.5883 1.8339e-05 1 
5055 1 8.11461 18.6471 -12.445 6.10294e-05 1 
5056 1 5.52486 17.5048 -12.8782 6.07197e-05 1 
5057 1 7.17104 16.5559 -10.7335 0.000331379 1 
5058 1 5.99498 19.1548 -10.5831 0.000221256 1 
5059 1 7.64236 18.2019 -8.43416 0.00278236 1 
5060 1 5.05367 17.0621 -8.86452 0.00120016 1 
5061 1 6.699 16.1276 -6.69659 0.00525918 1 
5062 1 5.52004 18.7116 -6.57369 0.00663809 1 
5063 1 7.17037 17.7889 -4.38344 0.0952233 1 
5064 1 4.5903 16.626 -4.82104 0.0200955 1 
5065 1 6.17369 15.698 -2.58157 0.361015 1 
5066 1 5.12599 18.2884 -2.52209 0.608378 1 
5164 1 37.5408 21.0594 -14.8724 3.48808e-05 1 
5165 1 39.1877 20.1065 -12.7293 8.86748e-05 1 
5166 1 36.5984 18.9603 -13.162 8.18898e-05 1 
5167 1 38.2458 18.0097 -11.0156 0.000193529 1 
5168 1 37.0676 20.6102 -10.8727 0.00026808 1 
5169 1 38.7138 19.6615 -8.72451 0.00055305 1 
5170 1 36.1269 18.5106 -9.15522 0.000553408 1 
5171 1 37.7796 17.564 -6.99991 0.00199206 1 
5172 1 36.589 20.1638 -6.87293 0.00710898 1 
5173 1 38.2452 19.2179 -4.7154 0.076056 1 
5174 1 35.6696 18.0656 -5.14533 0.0333179 1 
5175 1 37.3649 17.1032 -2.96534 0.355608 1 
5176 1 36.0937 19.8028 -2.94894 0.380343 1 
5177 1 37.7207 18.9665 -0.938303 3.56215 5 
5178 1 35.1925 17.6801 -1.35382 3.36721 5 
5270 1 35.4212 21.5633 -13.0163 0.000113657 1 
5271 1 34.9451 21.1092 -9.01889 0.000926232 1 
5368 1 33.7738 11.4668 -14.334 5.57409e-05 1 
5369 1 34.2467 13.117 -12.0358 0.00015571 1 
5370 1 33.3097 11.0151 -10.3328 0.000701403 1 
5371 1 33.7953 12.6545 -8.03108 0.00382816 1 
5372 1 32.8798 10.5261 -6.34353 0.0283394 1 
5373 1 34.5446 9.56976 -4.11616 0.134527 1 
5374 1 33.4008 12.1264 -4.01906 0.249266 1 
5375 1 32.4234 9.90736 -2.40887 7.14649 5 
5376 1 32.6879 11.7569 -0.441595 8.6779 5 
5406 1 32.5973 14.0703 -14.1783 4.78542e-05 1 
5407 1 30.0074 12.9284 -14.613 5.3403e-05 1 
5408 1 31.6567 11.9733 -12.4725 0.000170669 1 
5409 1 30.4788 14.5776 -12.3162 0.00018308 1 
5410 1 32.1319 13.6195 -10.1733 0.00066702 1 
5411 1 29.5377 12.4827 -10.6133 0.000904888 1 
5412 1 31.1975 11.5133 -8.47916 0.00444873 1 
5413 1 30.011 14.1288 -8.31609 0.00502313 1 
5414 1 31.6896 13.1402 -6.1855 0.040217 1 
5415 1 29.0606 12.0309 -6.65236 0.0318247 1 
5416 1 30.7632 10.9926 -4.59278 0.102649 1 
5417 1 29.5117 13.6842 -4.41368 0.329821 1 
5418 1 31.2304 12.6731 -2.47764 0.775947 1 
5419 1 28.636 11.5813 -2.83445 0.416827 1 
5420 1 30.2847 10.4367 -0.874223 5.71421 5 
5421 1 29.3153 12.9311 -0.520643 6.75625 5 
5483 1 28.83 15.5327 -14.4598 4.2708e-05 1 
5484 1 26.24 14.3923 -14.8942 2.70151e-05 1 
5485 1 27.8876 13.4396 -12.7526 0.000172176 1 
5486 1 26.7095 16.0439 -12.5991 9.42771e-05 1 
5487 1 28.3569 15.0906 -10.4547 0.0008078 1 
5488 1 25.7646 13.9566 -10.8914 0.000615419 1 
5489 1 27.4078 13.0055 -8.76023 0.00354473 1 
5490 1 26.2283 15.6132 -8.58597 0.00363715 1 
5491 1 27.8591 14.6588 -6.46708 0.0240869 1 
5492 1 25.2753 13.5378 -6.87766 0.0051619 1 
5493 1 26.9238 12.6303 -4.73231 0.217797 1 
5494 1 25.7358 15.1933 -4.53589 0.0915918 1 
5495 1 27.4675 14.3963 -2.22875 5.19963 5 
5496 1 24.8363 13.166 -2.87304 0.579007 5 
5497 1 26.6992 12.1121 -0.968536 7.78401 5 
5588 1 25.0622 16.9968 -14.7419 2.12688e-05 1 
5590 1 24.1198 14.9039 -13.0336 8.46591e-05 1 
5591 1 22.9425 17.5066 -12.8811 5.67532e-05 1 
5592 1 24.5882 16.5564 -10.7363 0.000397414 1 
5593 1 22.0015 15.4129 -11.1701 0.000335689 1 
5594 1 23.6435 14.4725 -9.02008 0.00156762 1 
5595 1 22.472 17.0636 -8.86994 0.00179298 1 
5596 1 24.1109 16.1275 -6.69751 0.00553554 1 
5597 1 21.5346 14.9739 -7.1399 0.00542876 1 
5598 1 23.1549 14.0637 -4.95628 0.034726 1 
5599 1 22.0023 16.6286 -4.81781 0.018999 1 
5600 1 23.5688 15.7012 -2.57133 0.400433 1 
5601 1 21.0374 14.539 -3.04201 0.109532 1 
5602 1 22.5193 13.6974 -0.801487 2.33247 5 
5701 1 20.3544 16.3619 -13.3138 4.40519e-05 1 
5702 1 19.1766 18.9656 -13.162 3.73003e-05 1 
5703 1 20.8246 18.0135 -11.0201 0.000248319 1 
5704 1 18.2373 16.8659 -11.452 0.000130547 1 
5705 1 19.8891 15.914 -9.30615 0.00120652 1 
5706 1 18.7076 18.5168 -9.16282 0.000740068 1 
5707 1 20.3628 17.5634 -7.01332 0.00488733 1 
5708 1 17.7821 16.4084 -7.45307 0.00299302 1 
5709 1 19.4434 15.4531 -5.28056 0.0178492 1 
5710 1 18.2566 18.0537 -5.17879 0.0376359 1 
5711 1 19.9362 17.102 -2.96342 0.3931 1 
5712 1 17.3885 15.9318 -3.46445 0.189767 1 
5713 1 17.7526 17.689 -1.35933 3.759 5 
5812 1 16.5886 17.8196 -13.5934 2.00196e-05 1 
5813 1 15.4113 20.424 -13.4422 2.06374e-05 1 
5814 1 17.0577 19.4704 -11.3011 0.000126675 1 
5815 1 14.4704 18.3248 -11.7312 7.07842e-05 1 
5816 1 16.1194 17.3671 -9.59158 0.000586996 1 
5817 1 14.939 19.9743 -9.43688 0.000957472 1 
5818 1 16.5858 19.0165 -7.30888 0.00416351 1 
5819 1 13.9955 17.872 -7.72902 0.00514491 1 
5820 1 15.6718 16.907 -5.61033 0.018552 1 
5821 1 14.4532 19.5116 -5.4413 0.0481552 1 
5822 1 16.1045 18.5655 -3.37271 0.26761 1 
5823 1 13.5092 17.4193 -3.76131 0.164804 1 
5824 1 15.2209 16.46 -1.78799 3.55587 5 
5825 1 14.0377 19.0219 -1.38142 8.21513 5 
5924 1 12.823 19.2802 -13.8736 1.67775e-05 1 
5925 1 11.646 21.8849 -13.7227 2.44871e-05 1 
5926 1 13.2937 20.9284 -11.5805 0.000116377 1 
5927 1 10.7047 19.7871 -12.012 8.65739e-05 1 
5928 1 12.3527 18.8319 -9.8664 0.000587604 1 
5929 1 11.1781 21.4297 -9.71767 0.000917448 1 
5930 1 12.8264 20.4747 -7.55875 0.00926213 1 
5931 1 10.2386 19.3352 -7.99842 0.00439159 1 
5932 1 11.8668 18.3872 -5.82637 0.0406899 1 
5933 1 10.7358 20.9545 -5.68637 0.0440576 1 
5934 1 12.3579 19.9871 -3.44173 3.20548 5 
5935 1 9.77202 18.8931 -3.87299 0.386058 1 
5936 1 11.3747 17.722 -1.82849 8.32351 5 
5937 1 10.4408 20.5396 -1.38185 10.7153 5 
6036 1 9.05691 20.7428 -14.155 1.99558e-05 1 
6037 1 7.88012 23.3485 -14.0048 2.99314e-05 1 
6038 1 9.52797 22.3912 -11.8625 0.000135903 1 
6039 1 6.93786 21.2504 -12.2958 9.88227e-05 1 
6040 1 8.58596 20.2937 -10.1504 0.000395771 1 
6041 1 7.40785 22.8998 -10.0071 0.000782192 1 
6042 1 9.06027 21.9306 -7.86153 0.00440548 1 
6043 1 6.46379 20.8042 -8.29281 0.00140507 1 
6044 1 8.12171 19.8312 -6.14944 0.038192 1 
6045 1 6.9224 22.4506 -6.01366 0.0559789 1 
6046 1 8.62463 21.4349 -3.93426 0.663746 1 
6047 1 5.99931 20.3426 -4.29997 0.306914 1 
6048 1 7.78705 19.5693 -1.97627 3.06017 5 
6049 1 6.4101 22.1644 -2.30441 6.95559 5 
6050 1 7.66226 21.8716 -0.0162572 9.10344 5 
6051 1 5.41939 20.2047 -0.569504 7.94616 5 
6149 1 40.1303 22.2048 -14.4386 2.88787e-05 1 
6150 1 38.9539 24.8119 -14.2896 4.59325e-05 1 
6151 1 5.76071 23.8581 -12.1483 0.000161726 1 
6152 1 38.0108 22.7115 -12.5832 0.000123852 1 
6153 1 39.6566 21.7583 -10.4404 0.000396413 1 
6154 1 38.4784 24.3693 -10.2981 0.000634209 1 
6155 1 40.1201 23.4161 -8.161 0.00533241 1 
6156 1 37.5328 22.2661 -8.59064 0.0021771 1 
6157 1 39.1753 21.3216 -6.44079 0.0248076 1 
6158 1 37.9814 23.9548 -6.32852 0.0202155 1 
6159 1 39.6017 23.0823 -4.23427 0.232245 1 
6160 1 37.0221 21.868 -4.63437 0.0876516 1 
6161 1 38.6667 21.0031 -2.58974 0.796306 1 
6162 1 37.5725 23.5772 -2.32898 0.759934 1 
6163 1 36.8378 21.6467 -0.538394 5.42375 5 
6259 1 36.3641 23.6653 -14.7241 4.47539e-05 1 
6260 1 35.1877 26.2731 -14.5749 5.28803e-05 1 
6261 1 36.8345 25.3203 -12.4365 0.000169047 1 
6262 1 35.8903 23.2154 -10.732 0.000437993 1 
6263 1 36.3552 24.8792 -8.45258 0.00289227 1 
6264 1 35.4031 22.7712 -6.74612 0.0100939 1 
6265 1 35.8671 24.4351 -4.44564 0.0371085 1 
6266 1 34.9534 22.351 -2.66649 0.244653 1 
6267 1 35.2097 23.9277 -0.325994 2.39217 5 
6392 1 34.7221 14.7636 -9.73476 0.000600489 1 
6393 1 34.2968 14.2859 -5.74059 0.0297639 1 
6394 1 34.8068 15.935 -3.46056 0.187584 1 
6395 1 33.8999 13.8398 -1.79569 7.06049 5 
6413 1 34.0091 17.8151 -13.594 6.1885e-05 1 
6414 1 31.4197 16.6728 -14.0263 4.93043e-05 1 
6415 1 33.0689 15.7178 -11.8812 0.000148057 1 
6416 1 31.8893 18.3182 -11.7333 0.000134657 1 
6417 1 33.5385 17.3627 -9.58514 0.000585847 1 
6418 1 30.9489 16.2232 -10.0182 0.000702167 1 
6419 1 32.608 15.2614 -7.87427 0.00419562 1 
6420 1 31.4127 17.8675 -7.71993 0.00493329 1 
6421 1 33.0849 16.9141 -5.5883 0.0266678 1 
6422 1 30.4712 15.779 -6.03247 0.0268356 1 
6423 1 32.2076 14.7926 -3.98219 0.123346 1 
6424 1 30.9086 17.417 -3.74749 0.199793 1 
6425 1 32.6488 16.4325 -1.79027 3.42379 5 
6426 1 30.12 15.2319 -2.22816 3.95187 5 
6476 1 30.2413 19.2761 -13.8779 6.91184e-05 1 
6477 1 27.6517 18.1368 -14.3093 4.28411e-05 1 
6478 1 29.2997 17.1805 -12.1651 0.000120764 1 
6479 1 28.1202 19.7838 -12.018 0.000154598 1 
6480 1 29.7676 18.8235 -9.87151 0.000478738 1 
6481 1 27.177 17.6921 -10.3032 0.000420162 1 
6482 1 28.8197 16.7395 -8.15393 0.00491075 1 
6483 1 27.6452 19.3297 -8.0054 0.00456635 1 
6484 1 29.2721 18.3764 -5.82706 0.0453039 1 
6485 1 26.6904 17.2657 -6.25884 0.0283331 1 
6486 1 28.2999 16.2683 -4.15885 0.281533 1 
6487 1 27.1616 18.8935 -3.86318 0.368304 1 
6488 1 28.7366 17.6932 -1.80967 8.14888 5 
6489 1 26.0673 16.8198 -2.23822 6.03209 5 
6571 1 26.473 20.7423 -14.1601 5.12714e-05 1 
6572 1 23.8841 19.6017 -14.5909 1.99348e-05 1 
6573 1 25.531 18.6474 -12.4487 7.45819e-05 1 
6574 1 24.3524 21.2534 -12.3001 0.00011803 1 
6575 1 25.9993 20.2948 -10.1564 0.000408276 1 
6576 1 23.4113 19.1582 -10.5877 0.000305234 1 
6577 1 25.0555 18.2031 -8.43711 0.00289744 1 
6578 1 23.8799 20.8104 -8.29961 0.00193178 1 
6579 1 25.526 19.8344 -6.14766 0.0370979 1 
6580 1 22.9368 18.7151 -6.57959 0.00847102 1 
6581 1 24.5629 17.7935 -4.37941 0.0694639 1 
6582 1 23.3996 20.3629 -4.30797 0.254595 1 
6583 1 25.0831 19.5615 -1.99985 2.25958 5 
6584 1 22.5008 18.3087 -2.49829 0.645419 1 
6585 1 22.7398 20.3111 -0.538557 7.0033 5 
6682 1 22.7064 22.2083 -14.4405 2.81425e-05 1 
6683 1 20.1181 21.0637 -14.8715 1.54919e-05 1 
6684 1 21.7644 20.1114 -12.7307 5.87928e-05 1 
6685 1 20.5866 22.7187 -12.5815 8.22631e-05 1 
6686 1 22.2316 21.7671 -10.4419 0.000412073 1 
6687 1 19.6444 20.6199 -10.8719 0.000236719 1 
6688 1 21.2924 19.6678 -8.73309 0.00127112 1 
6689 1 20.1064 22.2839 -8.58743 0.00308101 1 