ITEM: TIMESTEP
0
ITEM: NUMBER OF ATOMS
33626
ITEM: BOX BOUNDS xy xz yz pp pp ss
-8.8685781543000004e+01 1.6922991756799999e+02 -8.8685781543000004e+01
0.0000000000000000e+00 1.1153980075299999e+02 0.0000000000000000e+00
-1.3748336859279900e+02 1.5301679423753509e+02 0.0000000000000000e+00
ITEM: ATOMS id type x y z c_csym c_cna 
45151 1 0.0670275 53.488 -12.3848 0.000240451 1 
45332 1 5.67038 54.5779 -12.244 0.000293723 1 
45333 1 2.8691 54.0345 -12.3068 0.000530867 1 
45335 1 1.08541 55.5543 -10.6644 0.000859349 1 
45336 1 2.87079 53.6725 -9.45144 0.00304963 1 
45337 1 0.072438 53.1249 -9.53628 0.000736717 1 
45338 1 1.0949 55.1993 -7.81627 0.00835597 1 
45339 1 0.0743434 52.7713 -6.68784 0.00508174 1 
45520 1 11.2868 55.6542 -12.1358 0.000288689 1 
45521 1 8.47547 55.1174 -12.1896 0.00032672 1 
45524 1 8.47115 54.7545 -9.35738 0.00138569 1 
45525 1 5.66757 54.2166 -9.40058 0.00107539 1 
45528 1 5.65949 53.8549 -6.56414 0.00782108 1 
45529 1 2.86787 53.3095 -6.57986 0.0284505 1 
45530 1 3.8599 55.3805 -4.86552 0.0844111 1 
45531 1 1.07138 54.8703 -4.99015 0.116009 1 
45532 1 2.88625 52.9512 -3.69139 0.647143 5 
45533 1 0.082181 52.427 -3.86244 0.204172 1 
45534 1 1.1481 54.5189 -2.23937 3.46069 5 
45535 1 -0.10933 52.3128 -0.996396 5.69645 5 
45721 1 11.2849 55.2876 -9.31065 0.000646242 1 
45724 1 11.2906 54.9192 -6.48421 0.0110676 1 
45725 1 8.47252 54.3915 -6.53454 0.00951461 1 
45728 1 8.45366 54.0664 -3.69258 0.335837 1 
45729 1 5.65217 53.5126 -3.73728 0.320643 1 
45730 1 6.70899 55.5238 -1.71371 7.07148 5 
45731 1 3.92277 54.9445 -1.9327 6.62832 5 
45732 1 5.62289 52.8668 -1.03231 10.9391 5 
45922 1 14.1084 55.4545 -6.45952 0.0204845 1 
45925 1 14.1163 55.0651 -3.72934 0.281374 1 
45926 1 11.3372 54.5677 -3.64369 0.498924 5 
45929 1 8.48759 53.3803 -0.888596 15.3468 5 
46123 1 16.8752 55.6294 -3.57611 1.38771 5 
46126 1 16.858 55.1038 -0.905976 14.6349 5 
46127 1 13.9616 54.5559 -1.10052 9.48779 5 
50963 1 1.85295 51.9707 -14.0251 0.000163451 1 
50964 1 0.837665 49.5434 -12.8935 0.000204122 1 
51142 1 7.46163 53.0538 -13.8955 0.000116851 1 
51143 1 4.65654 52.5137 -13.9568 0.000119339 1 
51144 1 6.44499 50.625 -12.7617 0.000147456 1 
51145 1 3.64114 50.086 -12.825 0.000104246 1 
51146 1 4.65533 52.1497 -11.1118 0.000375319 1 
51147 1 1.85497 51.6068 -11.1756 0.000674197 1 
51148 1 3.64088 49.7215 -9.98089 0.000894559 1 
51149 1 0.840018 49.1796 -10.0417 0.000992594 1 
51150 1 1.85566 51.2467 -8.31932 0.00426012 1 
51151 1 0.839748 48.8207 -7.18287 0.00927759 1 
51330 1 13.0837 54.1302 -13.7767 0.000267141 1 
51331 1 10.2704 53.5924 -13.8376 0.000163213 1 
51332 1 12.064 51.6991 -12.6488 0.000572511 1 
51333 1 9.2521 51.1623 -12.7044 0.00018358 1 
51334 1 10.2672 53.2245 -11.0083 0.00050626 1 
51335 1 7.45859 52.6875 -11.0578 0.000337054 1 
51336 1 9.24857 50.791 -9.87006 0.000722271 1 
51337 1 6.44172 50.2568 -9.92023 0.000583044 1 
51338 1 7.45562 52.3212 -8.22684 0.00175049 1 
51339 1 4.65234 51.7882 -8.26642 0.00237134 1 
51340 1 6.43782 49.8874 -7.08091 0.00563734 1 
51341 1 3.64042 49.362 -7.14805 0.0142162 1 
51342 1 4.66197 51.4249 -5.42064 0.0320234 1 
51343 1 1.85747 50.8911 -5.4512 0.0654213 1 
51344 1 3.62561 49.0079 -4.34698 0.26517 1 
51345 1 0.846424 48.4853 -4.30074 0.145391 1 
51346 1 1.81956 50.6569 -2.45943 2.31187 5 
51347 1 0.877273 48.0656 -1.51555 7.59495 5 
51526 1 18.7119 55.2077 -13.6302 0.000140683 1 
51527 1 15.8986 54.6683 -13.7066 0.00016133 1 
51528 1 17.6946 52.7748 -12.5067 0.000282046 1 
51529 1 14.8798 52.2362 -12.5822 0.000386005 1 
51530 1 15.9011 54.2943 -10.881 0.000431952 1 
51531 1 13.0832 53.7598 -10.9545 0.00130942 1 
51532 1 14.8813 51.857 -9.76086 0.00169923 1 
51533 1 12.0615 51.3242 -9.83048 0.0043645 1 
51534 1 13.084 53.3887 -8.15061 0.00938916 1 
51535 1 10.2644 52.859 -8.18771 0.00331643 1 
51536 1 12.0566 50.9484 -7.04178 0.0491087 1 
51537 1 9.25079 50.4208 -7.03589 0.00975539 1 
51538 1 10.2524 52.5159 -5.3718 0.070996 1 
51539 1 7.45922 51.9565 -5.42019 0.0448311 1 
51540 1 9.28453 50.0734 -4.19405 0.428047 1 
51541 1 6.41996 49.4945 -4.23357 0.101497 1 
51542 1 7.37936 51.5859 -2.70538 6.0478 5 
51543 1 4.5759 51.0103 -2.56465 1.0705 5 
51544 1 6.51525 49.1345 -1.33361 8.51064 5 
51545 1 3.67242 48.6632 -1.61769 6.89184 5 
51726 1 23.3172 53.8605 -12.3429 0.000240241 1 
51727 1 20.5074 53.3163 -12.4263 0.000245346 1 
51728 1 21.526 55.3748 -10.7156 0.00102143 1 
51729 1 18.7149 54.8318 -10.8011 0.000706348 1 
51730 1 20.5111 52.9336 -9.59277 0.00140499 1 
51731 1 17.6969 52.3928 -9.67912 0.00121911 1 
51732 1 18.7163 54.4425 -7.98229 0.00485985 1 
51733 1 15.9033 53.9131 -8.06371 0.00159214 1 
51734 1 17.6977 51.999 -6.85363 0.00827927 1 
51735 1 14.8838 51.4656 -6.95123 0.0110444 1 
51736 1 15.9109 53.511 -5.25446 0.0259208 1 
51737 1 13.0937 53.0034 -5.37947 0.0678635 1 
51738 1 14.8709 51.037 -4.16138 0.0977725 1 
51739 1 12.0501 50.5808 -4.32453 0.58052 1 
51740 1 13.0662 52.6077 -2.59145 0.863143 5 
51741 1 10.323 52.2839 -2.5583 6.84735 5 
51742 1 12.1142 50.267 -1.69305 11.7804 5 
51743 1 9.18003 50.2178 -1.34238 10.4822 5 
51924 1 28.9292 54.9459 -12.186 0.000237191 1 
51925 1 26.124 54.4047 -12.2629 0.000125144 1 
51928 1 26.1259 54.032 -9.42016 0.00100632 1 
51929 1 23.3215 53.4812 -9.50106 0.00201759 1 
51930 1 24.3345 55.5419 -7.77891 0.00541572 1 
51931 1 21.5298 54.992 -7.89833 0.0105881 1 
51932 1 23.3259 53.0883 -6.65174 0.0223993 1 
51933 1 20.5134 52.5391 -6.75534 0.013012 1 
51934 1 21.5096 54.5948 -5.123 0.110768 1 
51935 1 18.6977 54.0224 -5.16853 0.0530529 1 
51936 1 20.5122 52.1462 -3.88163 0.272969 1 
51937 1 17.7085 51.5809 -4.01649 0.0702609 1 
51938 1 18.6268 53.6744 -2.33593 2.4026 5 
51939 1 15.8962 53.056 -2.4766 4.01316 5 
51940 1 17.6551 51.1303 -1.08379 10.9936 5 
51941 1 14.8717 50.6591 -1.44715 10.298 5 
52123 1 31.733 55.4844 -12.1162 0.000254628 1 
52126 1 31.7274 55.1123 -9.26276 0.000816355 1 
52127 1 28.9287 54.5765 -9.33766 0.00155952 1 
52130 1 28.9356 54.21 -6.50017 0.0178439 1 
52131 1 26.1255 53.6528 -6.58747 0.0134232 1 
52133 1 24.3317 55.1479 -4.95152 0.133033 1 
52134 1 26.0684 53.3058 -3.74381 0.394841 1 
52135 1 23.328 52.7392 -3.77909 1.21892 5 
52136 1 24.2096 54.7544 -1.86992 7.93133 5 
52137 1 21.4484 54.2695 -2.36982 9.00859 5 
52138 1 20.3306 52.0716 -0.927469 7.1773 5 
52327 1 34.5157 55.2698 -6.33535 0.0375002 1 
52328 1 31.7218 54.738 -6.41209 0.00673265 1 
52331 1 31.6995 54.3309 -3.59734 0.248435 1 
52332 1 28.9002 53.8644 -3.6867 0.212792 1 
52334 1 27.057 55.3045 -1.80168 5.99617 5 
52335 1 28.8983 53.4005 -0.926782 10.8442 5 
52336 1 26.1412 52.6146 -1.06619 10.6135 5 
52525 1 37.2464 55.5169 -3.60179 1.32953 5 
52526 1 34.5559 54.876 -3.46977 5.82655 5 
52714 1 37.0992 55.2882 -1.01234 13.1604 5 
56727 1 2.62481 48.0253 -14.539 3.25412e-05 1 
56728 1 1.60759 45.6003 -13.4087 5.3406e-05 1 
56905 1 8.23717 49.1037 -14.407 7.80644e-05 1 
56906 1 5.43042 48.5652 -14.4704 7.03599e-05 1 
56907 1 7.21951 46.6775 -13.2704 0.000165042 1 
56908 1 4.41375 46.1398 -13.3375 8.62443e-05 1 
56909 1 5.42898 48.1969 -11.6242 0.000330202 1 
56910 1 2.62521 47.6594 -11.6933 0.000178137 1 
56911 1 4.41355 45.7725 -10.4875 0.000688458 1 
56912 1 1.60768 45.2351 -10.5616 0.000377956 1 
56913 1 2.62584 47.2932 -8.85178 0.00467414 1 
56914 1 1.60919 44.8667 -7.71464 0.00585143 1 
57091 1 13.86 50.1797 -14.2817 0.000196524 1 
57092 1 11.047 49.6414 -14.3459 0.000151758 1 
57093 1 12.8398 47.7506 -13.1457 0.000238143 1 
57094 1 10.028 47.214 -13.209 0.000171854 1 
57095 1 11.0436 49.2675 -11.5112 0.000702442 1 
57096 1 8.23379 48.7334 -11.5658 0.000237666 1 
57097 1 10.0236 46.8425 -10.3674 0.000616945 1 
57098 1 7.21597 46.3087 -10.4203 0.00123466 1 
57099 1 8.22864 48.363 -8.72235 0.00161885 1 
57100 1 5.4278 47.8256 -8.77225 0.00311979 1 
57101 1 7.21059 45.9435 -7.55294 0.0124414 1 
57102 1 4.41868 45.4009 -7.62615 0.01214 1 
57103 1 5.42174 47.4558 -5.90649 0.0373908 1 
57104 1 2.6251 46.9257 -6.0413 0.0924433 1 
57105 1 4.46384 45.0117 -4.75007 0.228707 1 
57106 1 1.59336 44.5009 -4.8567 0.0887057 1 
57107 1 2.66169 46.5345 -3.32778 1.24599 1 
57108 1 1.67352 44.0724 -2.01897 2.57834 5 
57285 1 19.4872 51.2608 -14.135 0.000106702 1 
57286 1 16.6741 50.7193 -14.2108 0.000154815 1 
57287 1 18.4683 48.8311 -13.0034 0.000198738 1 
57288 1 15.654 48.2897 -13.078 0.000249823 1 
57289 1 16.6757 50.3414 -11.3775 0.000548064 1 
57290 1 13.8591 49.8032 -11.4513 0.000809711 1 
57291 1 15.6531 47.9132 -10.2405 0.000766798 1 
57292 1 12.8364 47.3748 -10.3068 0.000742017 1 
57293 1 13.8578 49.4199 -8.62417 0.00514468 1 
57294 1 11.0378 48.8888 -8.67575 0.00566603 1 
57295 1 12.8271 46.9995 -7.4609 0.00406308 1 
57296 1 10.0134 46.4752 -7.52202 0.00422515 1 
57297 1 11.0283 48.5003 -5.82417 0.0779717 1 
57298 1 8.22105 48.0146 -5.87198 0.0200175 1 
57299 1 9.98415 46.1286 -4.6811 0.0721925 1 
57300 1 7.22258 45.5929 -4.67319 6.9798 5 
57301 1 8.22064 47.6985 -2.96442 2.99014 5 
57302 1 5.44958 47.0301 -2.97464 5.46214 5 
57303 1 7.05361 46.0663 -0.754606 7.03279 5 
57304 1 4.68909 44.5844 -1.63065 9.30137 5 
57305 1 2.73864 46.2634 -0.7203 10.3122 5 
57482 1 25.108 52.348 -13.9804 4.17996e-05 1 
57483 1 22.2986 51.8042 -14.0574 8.30835e-05 1 
57484 1 24.0914 49.919 -12.8532 7.07531e-05 1 
57485 1 21.2804 49.3746 -12.9278 0.000171145 1 
57486 1 22.3013 51.4278 -11.2158 0.000409952 1 
57487 1 19.4896 50.8829 -11.297 0.00041407 1 
57488 1 21.2815 48.9986 -10.0831 0.000811533 1 
57489 1 18.4702 48.4546 -10.1602 0.000764835 1 
57490 1 19.493 50.5014 -8.45306 0.00244649 1 
57491 1 16.6783 49.958 -8.54314 0.00249714 1 
57492 1 18.4737 48.085 -7.30825 0.00357886 1 
57493 1 15.6505 47.54 -7.39928 0.00396492 1 
57494 1 16.6804 49.5728 -5.69549 0.0272306 1 
57495 1 13.8544 49.0168 -5.78931 0.0563112 1 
57496 1 15.6384 47.1833 -4.54633 0.0944564 1 
57497 1 12.8007 46.622 -4.58633 0.121399 1 
57498 1 13.8127 48.5658 -2.91429 0.941713 1 
57499 1 10.9793 48.1176 -2.87198 4.67517 5 
57500 1 12.9214 46.0156 -1.66864 8.31208 5 
57501 1 9.83611 45.7316 -1.9343 11.6651 5 
57502 1 9.10234 47.9089 -0.171654 5.09179 5 
57681 1 30.7225 53.431 -13.8296 0.000166261 1 
57682 1 27.9161 52.8905 -13.9043 5.45113e-05 1 
57683 1 29.7095 51.0041 -12.6989 0.000205829 1 
57684 1 26.9012 50.4625 -12.7783 6.2766e-05 1 
57685 1 27.918 52.5172 -11.0605 0.000446944 1 
57686 1 25.1101 51.9738 -11.1373 0.000171488 1 
57687 1 26.9027 50.0866 -9.93859 0.000610575 1 
57688 1 24.0924 49.5437 -10.0106 0.000275795 1 
57689 1 25.1121 51.5944 -8.29211 0.00179707 1 
57690 1 22.3046 51.0471 -8.36768 0.00260226 1 
57691 1 24.0925 49.1674 -7.16653 0.00219723 1 
57692 1 21.2824 48.6264 -7.23311 0.00638447 1 
57693 1 22.3137 50.677 -5.50076 0.0708073 1 
57694 1 19.5037 50.1301 -5.5882 0.028796 1 
57695 1 21.2949 48.2867 -4.38515 0.374091 1 
57696 1 18.4753 47.7148 -4.47424 6.5188 5 
57697 1 19.5635 49.7157 -2.64624 4.6538 5 
57698 1 16.7695 49.1274 -2.79157 8.41807 5 
57699 1 19.1732 48.0994 -0.42365 5.26765 5 
57700 1 15.5854 46.9672 -1.56887 8.20036 5 
57879 1 36.3372 54.5145 -13.7035 0.000169207 1 
57880 1 33.5283 53.9718 -13.7632 0.000141424 1 
57881 1 35.3208 52.0881 -12.563 0.000144387 1 
57882 1 32.5142 51.545 -12.6226 0.000908402 1 
57883 1 33.5222 53.5957 -10.9119 0.000436852 1 
57884 1 30.7216 53.0559 -10.978 0.00074721 1 
57885 1 32.5113 51.1633 -9.75889 0.0073348 1 
57886 1 29.7126 50.6255 -9.8483 0.00156056 1 
57887 1 30.7222 52.6741 -8.12455 0.00518707 1 
57888 1 27.9222 52.1401 -8.22746 0.00732763 1 
57889 1 29.7205 50.2365 -6.98793 0.0196788 1 
57890 1 26.9046 49.7012 -7.1061 0.00929041 1 
57891 1 27.9197 51.7642 -5.43932 0.142455 1 
57892 1 25.1252 51.2046 -5.4338 0.0481593 1 
57893 1 26.8967 49.2797 -4.27642 0.163083 1 
57894 1 24.0682 48.7921 -4.32513 0.306965 1 
57895 1 25.0413 50.757 -2.54946 1.81672 5 
57896 1 22.3222 50.4765 -2.47328 3.50293 5 
57897 1 24.3643 48.2544 -1.62602 11.9614 5 
57898 1 21.6254 47.9173 -1.67224 12.7701 5 
58078 1 39.1501 55.0595 -13.6469 0.00012379 1 
58079 1 40.9459 53.1788 -12.4479 0.000297498 1 
58080 1 38.1312 52.632 -12.5049 0.000301607 1 
58081 1 39.1409 54.684 -10.8089 0.000542826 1 
58082 1 36.3281 54.1382 -10.8555 0.000911037 1 
58083 1 38.1209 52.2528 -9.66008 0.00175408 1 
58084 1 35.3134 51.7084 -9.71395 0.000586879 1 
58085 1 36.3111 53.7552 -8.00089 0.00944705 1 
58086 1 33.5132 53.2153 -8.06004 0.00448008 1 
58087 1 35.2992 51.3147 -6.87198 0.0102431 1 
58088 1 32.5074 50.7653 -6.86927 0.0685219 1 
58089 1 33.4944 52.8238 -5.22071 0.0892029 1 
58090 1 30.7105 52.2742 -5.27009 0.0571746 1 
58091 1 32.5443 50.3275 -3.8959 6.00915 5 
58092 1 29.7452 49.8229 -4.09947 2.10578 5 
58093 1 30.741 51.9187 -2.43901 6.33533 5 
58094 1 27.8435 51.3784 -2.78218 6.3655 5 
58095 1 29.2277 50.5694 -0.714221 12.732 5 
58096 1 27.1003 48.8799 -1.44836 8.20997 5 
58278 1 40.9365 52.8023 -9.60971 0.0021617 1 
58280 1 39.1229 54.3011 -7.97627 0.00460099 1 
58281 1 40.9129 52.4153 -6.77044 0.0215879 1 
58282 1 38.0993 51.8602 -6.81474 0.0138001 1 
58283 1 39.0664 53.9012 -5.15214 0.0436105 1 
58284 1 36.2832 53.3572 -5.13306 0.130284 1 
58285 1 38.0269 51.4743 -3.9624 0.210617 1 
58286 1 35.2578 50.9117 -4.0731 0.433807 5 
58287 1 36.1709 52.9428 -2.13851 6.59478 5 
58288 1 33.4317 52.5425 -2.33002 6.48702 5 
58289 1 34.9513 50.363 -1.45854 11.7513 5 
58471 1 40.8326 52.0571 -3.93462 0.56799 1 
58473 1 38.9429 53.53 -2.30192 6.44032 5 
58474 1 40.4176 51.8133 -0.646806 8.36853 5 
58475 1 37.8531 50.8553 -1.16102 13.9589 5 
62537 1 2.37861 41.6575 -13.9274 6.39474e-05 1 
62538 1 0.58923 43.1769 -12.2805 0.000120797 1 
62715 1 9.0123 45.1594 -14.9154 6.12791e-05 1 
62716 1 6.20425 44.6211 -14.9828 4.65997e-05 1 
62717 1 7.99445 42.735 -13.7828 7.6294e-05 1 
62718 1 5.18678 42.1968 -13.8542 4.96849e-05 1 
62719 1 6.20263 44.2541 -12.1367 0.000189017 1 
62720 1 3.39657 43.7168 -12.2092 9.16887e-05 1 
62721 1 5.18624 41.8311 -11.0108 0.000208261 1 
62722 1 2.37739 41.2949 -11.0863 0.000355562 1 
62723 1 3.3977 43.3526 -9.36375 0.000706818 1 
62724 1 0.588116 42.8145 -9.43181 0.000722018 1 
62725 1 2.37358 40.934 -8.24914 0.00316563 1 
62726 1 0.588902 42.4589 -6.57284 0.0113689 1 
62903 1 14.6345 46.2369 -14.7803 0.000110372 1 
62904 1 11.8226 45.6975 -14.8482 9.37328e-05 1 
62905 1 13.6144 43.8126 -13.6419 0.000209991 1 
62906 1 10.8034 43.2735 -13.7131 7.06423e-05 1 
62907 1 11.8198 45.3256 -12.005 0.000326991 1 
62908 1 9.00911 44.7905 -12.0718 0.000249405 1 
62909 1 10.7999 42.9043 -10.8682 0.000297171 1 
62910 1 7.99225 42.3668 -10.9387 0.000448038 1 
62911 1 9.00325 44.4243 -9.22804 0.00207686 1 
62912 1 6.20163 43.8885 -9.28563 0.00140197 1 
62913 1 7.99035 41.9954 -8.09867 0.00473717 1 
62914 1 5.18619 41.4646 -8.16832 0.0012002 1 
62915 1 6.20494 43.5186 -6.42904 0.0139198 1 
62916 1 3.39725 42.9892 -6.52006 0.00850145 1 
62917 1 5.1975 41.1016 -5.3318 0.0415753 1 
62918 1 2.37309 40.5631 -5.43204 0.0274272 1 
62919 1 3.4112 42.6312 -3.70419 0.328594 1 
62920 1 0.607926 42.0356 -3.70454 2.33631 5 
62921 1 2.36546 40.1623 -2.63199 2.73776 5 
63098 1 20.2602 47.3213 -14.6373 9.3102e-05 1 
63099 1 17.4474 46.7785 -14.7104 0.000105897 1 
63100 1 19.2393 44.897 -13.5042 0.000123759 1 
63101 1 16.4262 44.3537 -13.5723 0.000230428 1 
63102 1 17.4464 46.4052 -11.868 0.000426156 1 
63103 1 14.6325 45.8632 -11.9375 0.000349609 1 
63104 1 16.4225 43.9825 -10.7197 0.00142112 1 
63105 1 13.6115 43.4421 -10.7901 0.00122454 1 
63106 1 14.6285 45.4901 -9.09128 0.00163202 1 
63107 1 11.815 44.9548 -9.15809 0.00140521 1 
63108 1 13.6068 43.0747 -7.92464 0.00906252 1 
63109 1 10.7951 42.5361 -8.02736 0.00464543 1 
63110 1 11.8052 44.5918 -6.30896 0.00944347 1 
63111 1 8.99467 44.0607 -6.3942 0.0176204 1 
63112 1 10.7648 42.1902 -5.20289 0.0735364 1 
63113 1 7.97999 41.6224 -5.27392 0.0729743 1 
63114 1 8.92874 43.7126 -3.55237 7.48356 5 
63115 1 6.20881 43.1558 -3.51146 6.70612 5 
63116 1 7.98697 41.2269 -2.50134 5.79399 5 
63117 1 5.18943 40.6233 -2.58746 6.59152 5 
63118 1 6.34623 42.2057 -0.641193 10.8472 5 
63119 1 3.34743 42.1127 -1.03153 12.2039 5 
63296 1 25.8834 48.4078 -14.4932 2.41195e-05 1 
63297 1 23.072 47.8646 -14.5657 4.0753e-05 1 
63298 1 24.8648 45.9811 -13.3647 4.64253e-05 1 
63299 1 22.0519 45.4394 -13.4336 7.63259e-05 1 
63300 1 23.0719 47.4915 -11.7227 0.00015676 1 
63301 1 20.26 46.9483 -11.7904 0.000683691 1 
63302 1 22.0489 45.0693 -10.5863 0.000467187 1 
63303 1 19.2369 44.5283 -10.658 0.000861946 1 
63304 1 20.2585 46.576 -8.93001 0.00739585 1 
63305 1 17.4438 46.035 -9.02457 0.00337672 1 
63306 1 19.2311 44.164 -7.81503 0.0133813 1 
63307 1 16.4158 43.6144 -7.851 0.0111996 1 
63308 1 17.4328 45.6813 -6.19081 0.0367699 1 
63309 1 14.6147 45.1314 -6.24716 0.015675 1 
63310 1 16.419 43.2611 -4.97549 6.74776 5 
63311 1 13.6088 42.6951 -5.05359 0.329014 1 
63312 1 14.6027 44.725 -3.43811 5.77216 5 
63313 1 11.7723 44.2202 -3.50252 6.37867 5 
63314 1 13.4025 42.4906 -1.86286 12.1659 5 
63315 1 10.6423 41.9526 -2.34125 7.05417 5 
63492 1 31.502 49.4938 -14.3433 0.000186717 1 
63493 1 28.6937 48.9508 -14.4188 5.02183e-05 1 
63494 1 30.4879 47.0667 -13.2177 0.000165683 1 
63495 1 27.6773 46.5232 -13.2925 3.716e-05 1 
63496 1 28.6953 48.5767 -11.5767 0.000333232 1 
63497 1 25.884 48.0338 -11.6525 9.53715e-05 1 
63498 1 27.6783 46.1478 -10.4526 0.00010227 1 
63499 1 24.8633 45.608 -10.5239 0.000247815 1 
63500 1 25.8839 47.6563 -8.81413 0.000393636 1 
63501 1 23.0699 47.1174 -8.87749 0.00072032 1 
63502 1 24.8624 45.2332 -7.68516 0.00266795 1 
63503 1 22.0419 44.6986 -7.73219 0.00947554 1 
63504 1 23.0686 46.7349 -6.03769 0.0288227 1 
63505 1 20.2635 46.2183 -6.04715 0.150358 1 
63506 1 21.9764 44.3527 -4.83765 0.231331 1 
63507 1 19.2016 43.8398 -5.00157 0.303839 1 
63508 1 20.1491 46.0114 -2.96759 7.97737 5 
63509 1 17.3353 45.3592 -3.29967 8.26987 5 
63510 1 19.1576 43.489 -2.34313 11.1616 5 
63511 1 17.3333 41.9038 -0.779563 8.35439 5 
63512 1 17.8617 45.7161 -0.661391 7.28718 5 
63513 1 15.5079 44.1225 -0.962273 8.64021 5 
63690 1 37.1204 50.5809 -14.2112 0.000127096 1 
63691 1 34.3098 50.0372 -14.2752 0.000153187 1 
63692 1 36.1063 48.1568 -13.0785 0.00020499 1 
63693 1 33.2961 47.6113 -13.1454 0.000202687 1 
63694 1 34.3068 49.6622 -11.4261 0.000709265 1 
63695 1 31.5023 49.1191 -11.4924 0.00114001 1 
63696 1 33.2952 47.2351 -10.2996 0.00111141 1 
63697 1 30.49 46.6906 -10.3754 0.00113726 1 
63698 1 31.5032 48.737 -8.63072 0.00728111 1 
63699 1 28.6987 48.1986 -8.73933 0.00350736 1 
63700 1 30.4908 46.3063 -7.53681 0.00612419 1 
63701 1 27.6779 45.7687 -7.6142 0.00291098 1 
63702 1 28.7073 47.8203 -5.91574 0.0382541 1 
63703 1 25.8783 47.2808 -5.97821 0.0380429 1 
63704 1 27.705 45.3806 -4.80062 7.25455 5 
63705 1 24.8752 44.8565 -4.85712 0.126022 1 
63706 1 26.016 46.7974 -3.15293 5.19712 5 
63707 1 23.118 46.311 -3.25829 6.81139 5 
63708 1 24.841 44.6582 -1.82972 9.44435 5 
63709 1 21.9565 44.0451 -1.91781 6.37216 5 
63886 1 42.7481 51.6724 -14.0858 0.000125742 1 
63887 1 39.9331 51.1258 -14.148 0.000148077 1 
63888 1 41.7326 49.2494 -12.9459 0.000247023 1 
63889 1 38.9191 48.7028 -13.011 0.000255985 1 
63890 1 39.9293 50.7526 -11.3019 0.000760976 1 
63891 1 37.1169 50.2061 -11.3646 0.000536769 1 
63892 1 38.9207 48.3322 -10.1613 0.00147778 1 
63893 1 36.1059 47.7825 -10.234 0.00110899 1 
63894 1 37.1118 49.8217 -8.51473 0.0030497 1 
63895 1 34.3012 49.2771 -8.57324 0.00517662 1 
63896 1 36.1075 47.3959 -7.38937 0.00808553 1 
63897 1 33.2929 46.8449 -7.45333 0.00668586 1 
63898 1 34.2923 48.8534 -5.71742 0.0853389 1 
63899 1 31.5099 48.3432 -5.75688 0.0818623 1 
63900 1 33.2645 46.4178 -4.59187 0.308311 1 
63901 1 30.4922 45.9424 -4.69744 0.174646 1 
63902 1 31.5162 47.9693 -2.67189 8.89749 5 
63903 1 28.7335 47.3869 -3.06771 7.15636 5 
63904 1 30.3644 45.4943 -1.96002 12.6325 5 
63905 1 27.569 45.7041 -0.872871 9.3986 5 
63906 1 29.6957 47.8137 -0.387359 6.89572 5 
64082 1 44.5484 49.7966 -12.8834 0.000266219 1 
64084 1 42.745 51.3024 -11.2451 0.000588031 1 
64085 1 44.5482 49.4334 -10.0419 0.00129714 1 
64086 1 41.733 48.8825 -10.0965 0.00107821 1 
64087 1 42.7379 50.9345 -8.39753 0.00437768 1 
64088 1 39.9225 50.3747 -8.44629 0.00523356 1 
64089 1 41.7355 48.5232 -7.23563 0.0080123 1 
64090 1 38.9285 47.9593 -7.2992 0.0100171 1 
64091 1 39.9036 49.9956 -5.5634 0.0565719 1 
64092 1 37.1011 49.416 -5.66194 0.0335476 1 
64093 1 38.971 47.5829 -4.4223 0.141715 1 
64094 1 36.1166 46.959 -4.55196 0.111226 1 
64095 1 37.0666 48.9398 -2.86295 6.96191 5 
64096 1 34.2704 48.2345 -2.84839 6.65368 5 
64097 1 36.1917 46.5818 -1.53995 4.00757 5 
64098 1 33.4576 45.6764 -1.68291 7.3906 5 
64274 1 44.5436 49.0817 -7.19539 0.0101019 1 
64276 1 42.7266 50.5933 -5.53103 0.176691 1 
64277 1 44.5298 48.7807 -4.31267 0.336506 1 
64278 1 41.7687 48.2045 -4.35976 0.251533 1 
64279 1 42.6 50.5728 -2.4929 6.46262 5 
64280 1 39.9212 49.6864 -2.63302 5.30799 5 
64281 1 41.72 47.7098 -1.65088 7.26748 5 
64282 1 38.9732 47.4086 -1.37995 7.46827 5 
64458 1 44.3751 48.7969 -1.51978 6.9035 5 
68341 1 3.15036 37.711 -14.4458 3.45881e-05 1 
68342 1 0.341016 37.1688 -14.5187 6.42881e-05 1 
68343 1 1.35886 39.2327 -12.8047 0.000186333 1 
68344 1 0.337978 36.8043 -11.685 0.000420587 1 
68523 1 8.76911 38.7933 -14.2951 6.57435e-05 1 
68524 1 5.95999 38.2522 -14.3714 4.35306e-05 1 
68525 1 6.97712 40.3105 -12.6544 0.000123592 1 
68526 1 4.16819 39.7723 -12.7306 8.94658e-05 1 
68527 1 5.95873 37.8853 -11.5334 0.000236521 1 
68528 1 3.1479 37.3453 -11.6099 6.45959e-05 1 
68529 1 4.16609 39.407 -9.89471 0.000499867 1 
68530 1 1.35535 38.8708 -9.9715 0.00163117 1 
68531 1 3.1449 36.9768 -8.77627 0.00162072 1 
68532 1 0.33339 36.437 -8.86104 0.0043335 1 
68533 1 1.35311 38.5021 -7.1544 0.0215757 1 
68534 1 0.332892 36.0649 -6.05155 0.0626942 1 
68713 1 14.3881 39.8792 -14.1507 0.000101261 1 
68714 1 11.5781 39.3357 -14.2223 3.36291e-05 1 
68715 1 12.5946 41.3916 -12.5075 0.000128936 1 
68716 1 9.78507 40.8496 -12.5791 0.000146338 1 
68717 1 11.5754 38.9691 -11.376 7.50893e-05 1 
68718 1 8.76774 38.4253 -11.4492 0.000466529 1 
68719 1 9.78266 40.4788 -9.72876 0.0015287 1 
68720 1 6.97646 39.9413 -9.81144 0.000884053 1 
68721 1 8.76813 38.0551 -8.59482 0.0046081 1 
68722 1 5.95882 37.5168 -8.70163 0.00227204 1 
68723 1 6.97815 39.5655 -6.96744 0.00970713 1 
68724 1 4.16526 39.0403 -7.07146 0.00689721 1 
68725 1 5.95631 37.1423 -5.88853 0.0252736 1 
68726 1 3.11859 36.6181 -5.92819 0.0480719 1 
68727 1 4.14684 38.6545 -4.28416 0.0709515 1 
68728 1 1.2651 38.1739 -4.31177 6.26564 5 
68729 1 3.18387 36.2252 -3.09009 6.35866 5 
68730 1 0.353594 35.7097 -3.24545 6.30713 5 
68731 1 1.49093 37.7381 -1.61336 10.8399 5 
68910 1 20.0111 40.9641 -14.0144 7.81617e-05 1 
68911 1 17.1987 40.4222 -14.0808 0.000158093 1 
68912 1 18.2163 42.4762 -12.3671 0.000224781 1 
68913 1 15.4049 41.9335 -12.4315 0.000766501 1 
68914 1 17.1938 40.0597 -11.2305 0.000852117 1 
68915 1 14.3851 39.5156 -11.3024 0.000610773 1 
68916 1 15.4004 41.5689 -9.56609 0.0053822 1 
68917 1 12.5923 41.0259 -9.65903 0.00129207 1 
68918 1 14.3815 39.1552 -8.45169 0.00522594 1 
68919 1 11.5713 38.6029 -8.52796 0.000990678 1 
68920 1 12.5848 40.6635 -6.8171 0.0208137 1 
68921 1 9.77953 40.1037 -6.86296 0.0250599 1 
68922 1 11.5748 38.2314 -5.68464 0.03552 1 
68923 1 8.77683 37.6824 -5.72387 0.0675661 1 
68924 1 9.81932 39.7376 -3.96339 5.73226 5 
68925 1 7.00582 39.1603 -4.12873 0.245527 1 
68926 1 8.7479 37.3717 -2.69947 5.78321 5 
68927 1 5.94459 36.7887 -3.10826 0.537484 1 
68928 1 6.88479 38.8647 -1.03653 11.7956 5 
68929 1 4.1321 38.336 -1.42178 6.87504 5 
68930 1 5.64506 36.2567 -0.490003 13.4335 5 
69109 1 25.6396 42.0447 -13.8768 3.99478e-05 1 
69110 1 22.825 41.5048 -13.9468 4.79501e-05 1 
69111 1 23.8441 43.5576 -12.2344 9.09903e-05 1 
69112 1 21.0301 43.0179 -12.3011 0.000135022 1 
69113 1 22.8221 41.1385 -11.1051 0.000240895 1 
69114 1 20.0064 40.6008 -11.1695 0.000341798 1 
69115 1 21.0253 42.6519 -9.45211 0.000931108 1 
69116 1 18.2092 42.112 -9.51325 0.0011063 1 
69117 1 19.9998 40.2439 -8.32246 0.00237604 1 
69118 1 17.1882 39.702 -8.37155 0.00763207 1 
69119 1 18.2033 41.7496 -6.65041 0.0149661 1 
69120 1 15.3982 41.2099 -6.68536 0.0869356 1 
69121 1 17.1536 39.3792 -5.46963 0.135744 1 
69122 1 14.3843 38.8351 -5.58506 0.142619 1 
69123 1 15.3735 40.985 -3.59471 4.91495 5 
69124 1 12.5551 40.3584 -4.00077 0.765551 5 
69125 1 14.3346 38.4396 -2.8537 6.34228 5 
69126 1 11.5185 37.7799 -2.86128 6.13113 5 
69127 1 12.0981 39.9222 -1.39339 12.0972 5 
69304 1 32.2816 45.5564 -14.8617 5.02665e-05 1 
69305 1 29.4708 45.0121 -14.9332 2.66854e-05 1 
69306 1 31.2663 43.1284 -13.7332 9.06155e-05 1 
69307 1 28.4538 42.5853 -13.8045 6.39307e-05 1 
69308 1 29.4723 44.6379 -12.0925 9.07738e-05 1 
69309 1 26.6592 44.0966 -12.1659 0.000144886 1 
69310 1 28.456 42.2092 -10.9629 0.000514827 1 
69311 1 25.6392 41.6733 -11.0362 0.000289214 1 
69312 1 26.6593 43.7209 -9.3315 0.00200985 1 
69313 1 23.8407 43.1881 -9.3923 0.00083141 1 
69314 1 25.634 41.3008 -8.19455 0.003809 1 
69315 1 22.8173 40.7773 -8.26261 0.00202866 1 
69316 1 23.8236 42.8303 -6.5488 0.0179268 1 
69317 1 21.0162 42.2917 -6.59001 0.0185148 1 
69318 1 22.8194 40.4222 -5.42136 0.0253732 1 
69319 1 19.9853 39.906 -5.47127 0.0354859 1 
69320 1 21.0375 41.9372 -3.70623 0.225622 1 
69321 1 18.1596 41.4078 -3.75174 5.12056 5 
69322 1 20.0695 39.5773 -2.6289 4.80508 5 
69323 1 17.2362 39.0608 -2.53688 4.70905 5 
69324 1 15.0746 40.0691 -0.819343 12.1028 5 
69325 1 17.0694 37.9954 0.0220141 14.6754 5 
69502 1 37.905 46.6489 -14.7245 7.92201e-05 1 
69503 1 35.0925 46.1024 -14.7929 6.22398e-05 1 
69504 1 36.892 44.2236 -13.5974 0.000148702 1 
69505 1 34.0786 43.6748 -13.6644 6.11668e-05 1 
69506 1 35.094 45.7308 -11.9525 0.000315589 1 
69507 1 32.2832 45.1821 -12.0201 0.000209664 1 
69508 1 34.0818 43.3001 -10.8245 0.000335066 1 
69509 1 31.2682 42.7511 -10.8923 0.000632236 1 
69510 1 32.2845 44.8014 -9.18069 0.00100257 1 
69511 1 29.4726 44.2592 -9.25424 0.000352683 1 
69512 1 31.2678 42.3684 -8.05453 0.00718165 1 
69513 1 28.4594 41.8276 -8.11984 0.0044702 1 
69514 1 29.4742 43.8761 -6.41816 0.0186575 1 
69515 1 26.6592 43.3341 -6.51734 0.0375361 1 
69516 1 28.449 41.4445 -5.26124 0.0508942 1 
69517 1 25.6452 40.9296 -5.34747 0.0366489 1 
69518 1 26.6128 43.0408 -3.7044 6.57438 5 
69519 1 23.818 42.4974 -3.74866 0.213208 1 
69520 1 25.6287 40.5351 -2.5495 3.70354 5 
69521 1 22.8286 40.0159 -2.56348 0.385435 1 
69522 1 23.8186 42.0376 -1.07138 8.75217 5 
69699 1 43.532 47.7412 -14.5877 0.000116934 1 
69700 1 40.718 47.1952 -14.6552 0.000103623 1 
69701 1 42.5191 45.3211 -13.4551 0.000149825 1 
69702 1 39.706 44.7727 -13.5258 0.000122629 1 
69703 1 40.7216 46.8297 -11.8087 0.00050255 1 
69704 1 37.9084 46.2809 -11.883 0.000447763 1 
69705 1 39.7156 44.409 -10.6839 0.000747854 1 
69706 1 36.8985 43.855 -10.7644 0.00164945 1 
69707 1 37.918 45.9147 -9.04414 0.00377102 1 
69708 1 35.0957 45.3557 -9.11649 0.00252974 1 
69709 1 36.9102 43.4898 -7.95494 0.0238401 1 
69710 1 34.0855 42.9201 -7.98274 0.00562119 1 
69711 1 35.0877 44.9733 -6.28512 0.0398238 1 
69712 1 32.2794 44.4106 -6.34757 0.0156681 1 
69713 1 34.0862 42.543 -5.12906 0.213345 1 
69714 1 31.2264 41.9957 -5.21949 0.0874716 1 
69715 1 32.2367 44.0193 -3.56332 6.59471 5 
69716 1 29.3747 43.5231 -3.5468 6.5466 5 
69717 1 31.1012 41.7183 -2.36025 6.80541 5 
69718 1 28.3821 41.1379 -2.40384 4.93115 5 
69719 1 26.6826 42.766 -1.0255 11.5283 5 
69895 1 45.3333 45.8676 -13.3864 0.000199631 1 
69896 1 46.3522 47.9252 -11.679 0.000599515 1 
69897 1 43.5349 47.378 -11.7414 0.000686873 1 
69898 1 45.3396 45.5116 -10.5434 0.00118739 1 
69899 1 42.5267 44.9623 -10.6095 0.00071158 1 
69900 1 43.54 47.0207 -8.88338 0.00588309 1 
69901 1 40.7305 46.4682 -8.95366 0.00299447 1 
69902 1 42.5418 44.6113 -7.75967 0.0049177 1 
69903 1 39.7369 44.0507 -7.83986 0.00538004 1 
69904 1 40.7608 46.1165 -6.08025 0.021151 1 
69905 1 37.9429 45.5518 -6.2102 0.0323174 1 
69906 1 39.7567 43.6961 -4.99077 0.102036 1 
69907 1 36.9368 43.133 -5.21619 0.352553 1 
69908 1 37.9852 45.2144 -3.33866 0.47382 1 
69909 1 35.1747 44.5384 -3.45331 0.954868 5 
69910 1 37.0805 42.6371 -2.62078 7.87336 5 
69911 1 33.8406 42.3377 -2.09107 9.35748 5 
69912 1 35.7537 43.7009 -0.702623 10.8245 5 
70086 1 46.3584 47.5718 -8.84047 0.00530217 1 
324824 2 81.1047 2.12628 7.01087 0.0036723 1 
70088 1 45.3511 45.1659 -7.69708 0.00913237 1 
70089 1 46.3532 47.2484 -6.01779 0.078379 1 
70090 1 43.5582 46.6755 -5.99616 0.0632292 1 
70091 1 45.3819 44.8222 -4.84624 0.0945055 1 
70092 1 42.5809 44.2816 -4.90934 0.093713 1 
70093 1 43.6798 46.355 -3.03821 5.1959 5 
70094 1 40.7616 45.6913 -3.1956 0.466869 1 
70095 1 42.6569 43.8018 -2.12051 6.82644 5 
70096 1 39.8885 43.175 -2.1191 7.97684 5 
70097 1 38.2747 44.8435 -0.640669 9.76946 5 
70269 1 48.2196 45.3737 -4.75278 0.999301 5 
70271 1 46.473 46.8865 -3.2684 3.00273 5 
70272 1 48.2052 45.2177 -0.977778 9.51969 5 
70273 1 45.4103 44.4624 -1.88555 6.3306 5 
70274 1 46.0749 46.95 -0.706245 7.75108 5 
74157 1 3.9223 33.7628 -14.9597 3.92187e-05 1 
74159 1 2.12985 35.2825 -13.3219 4.05439e-05 1 
74160 1 1.10738 32.8534 -12.1954 7.24487e-05 1 
74337 1 9.54258 34.8509 -14.8105 3.7579e-05 1 
74338 1 6.73263 34.3067 -14.8859 3.54363e-05 1 
74339 1 7.75061 36.3672 -13.1708 9.13241e-05 1 
74340 1 4.94019 35.8248 -13.2484 7.07082e-05 1 
74341 1 6.72955 33.9387 -12.0492 0.000136414 1 
74342 1 3.91783 33.3952 -12.1253 0.000143127 1 
74343 1 4.9376 35.4573 -10.4154 0.000336081 1 
74344 1 2.12579 34.9161 -10.4876 0.000260319 1 
74345 1 3.91128 33.0278 -9.29579 0.000933052 1 
74346 1 1.10018 32.4914 -9.36114 0.000669752 1 
74347 1 2.12251 34.5502 -7.64792 0.00701909 1 
74348 1 1.08289 32.1432 -6.52404 0.0109415 1 
74525 1 15.1622 35.9402 -14.668 5.11744e-05 1 
74526 1 12.352 35.3956 -14.7376 4.17816e-05 1 
74527 1 13.3683 37.456 -13.0217 9.007e-05 1 
74528 1 10.5592 36.9108 -13.0935 8.23305e-05 1 
74529 1 12.3481 35.0304 -11.8945 0.000136627 1 
74530 1 9.54005 34.4834 -11.9686 0.000189873 1 