ITEM: TIMESTEP
0
ITEM: NUMBER OF ATOMS
23128
ITEM: BOX BOUNDS xy xz yz pp pp ss
-1.3574143784000000e+01 3.1719542083699997e+02 -1.3574143784000000e+01
0.0000000000000000e+00 4.0755660595000002e+01 0.0000000000000000e+00
-8.8396467055529911e+01 9.2376430927019825e+01 0.0000000000000000e+00
ITEM: ATOMS id type x y z c_csym c_cna 
1 1 0.258151 39.7301 -12.3498 0.000687904 1 
2 1 1.05873 39.9908 -9.59242 0.00286542 1 
3 1 1.86235 40.2361 -6.82845 0.0195415 1 
4 1 0.3839 38.8791 -3.44093 0.551326 1 
5 1 2.65364 40.4519 -4.01947 0.369063 1 
6 1 1.35856 39.1154 -0.960101 7.14546 5 
42 1 2.14438 38.8426 -14.3075 0.000278387 1 
43 1 2.68959 36.5063 -12.7411 0.000403132 1 
44 1 0.543338 34.7976 -11.9753 0.000630867 1 
45 1 0.80107 37.3966 -10.7853 0.00163358 1 
46 1 1.34153 35.0631 -9.22311 0.00257336 1 
49 1 6.96992 39.9326 -14.3047 0.00025846 1 
50 1 4.83153 38.2171 -13.5186 0.000279895 1 
51 1 2.94749 39.1014 -11.5529 0.000557916 1 
52 1 5.63651 38.4669 -10.7653 0.000613819 1 
53 1 3.49182 36.7612 -9.98687 0.000984118 1 
54 1 3.75062 39.3482 -8.7968 0.00120523 1 
55 1 1.59885 37.6554 -8.02427 0.0108301 1 
56 1 4.29813 36.999 -7.23413 0.00866513 1 
57 1 2.13892 35.324 -6.46297 0.0269479 1 
58 1 2.40214 37.8972 -5.24699 0.144436 1 
59 1 0.181525 36.2339 -4.55617 0.155284 1 
60 1 3.01865 35.5518 -3.73111 0.266777 1 
61 1 0.793362 33.9428 -3.1095 0.573646 1 
62 1 1.15196 36.5848 -1.94025 6.72341 5 
63 1 7.77551 40.1825 -11.55 0.000497019 1 
64 1 8.58661 40.4209 -8.79454 0.00143697 1 
65 1 6.4465 38.7004 -8.01589 0.00376081 1 
66 1 4.55339 39.5748 -6.0439 0.0306194 1 
67 1 7.28516 38.9016 -5.28973 0.0187063 1 
68 1 5.15206 37.186 -4.50807 0.0673834 1 
69 1 5.44808 39.7381 -3.35901 0.226805 1 
70 1 3.3936 38.0532 -2.4744 1.43437 1 
71 1 5.98487 37.2449 -1.72448 1.08744 1 
72 1 3.95696 35.7485 -0.679944 3.12029 5 
73 1 8.13728 39.0161 -2.57539 0.935769 1 
74 1 6.23143 39.6051 -0.640793 6.21909 5 
198 1 0.283643 32.1964 -13.1589 0.00030163 1 
199 1 0.822514 29.8657 -11.5955 0.000396593 1 
218 1 4.57372 35.6208 -14.7025 0.000209876 1 
219 1 2.4312 33.9083 -13.926 0.0003027 1 
220 1 5.12006 33.2822 -13.1335 0.000312534 1 
221 1 2.97502 31.5736 -12.3585 0.0005078 1 
222 1 3.23412 34.169 -11.1742 0.00072925 1 
223 1 1.08203 32.4656 -10.4122 0.000874092 1 
224 1 3.77714 31.8332 -9.60462 0.00197418 1 
225 1 1.61344 30.1372 -8.85157 0.00174181 1 
226 1 1.8755 32.7338 -7.6636 0.00602309 1 
227 1 2.3872 30.4086 -6.11359 0.0161588 1 
228 1 0.191231 28.7093 -5.40024 0.0608806 1 
229 1 0.407042 31.364 -4.20606 0.196315 1 
230 1 0.916761 29.081 -2.77407 0.554316 1 
241 1 9.39735 36.7143 -14.7085 0.000221999 1 
242 1 7.26056 34.9956 -13.9173 0.000225339 1 
243 1 7.51811 37.59 -12.7352 0.000335502 1 
244 1 5.37832 35.8759 -11.9507 0.000436937 1 
245 1 8.06811 35.2438 -11.1665 0.000509876 1 
246 1 5.92583 33.5325 -10.3815 0.000863068 1 
247 1 6.18647 36.1179 -9.19957 0.00166281 1 
248 1 4.038 34.4193 -8.41947 0.00387607 1 
249 1 6.74102 33.7645 -7.63173 0.00204932 1 
250 1 4.58529 32.0783 -6.84431 0.0127413 1 
251 1 4.87094 34.6373 -5.67059 0.025536 1 
252 1 2.68991 33.0009 -4.92195 0.0691236 1 
253 1 5.3882 32.2992 -4.03903 0.389439 1 
254 1 3.13445 30.7114 -3.41655 0.406293 1 
255 1 3.51983 33.3081 -2.0435 1.78235 5 
256 1 1.20998 31.778 -1.54687 1.67723 5 
257 1 4.16254 30.9161 -0.909147 8.36558 5 
258 1 1.79126 29.499 -0.221969 7.3696 5 
262 1 9.65326 39.3102 -13.5283 0.000338933 1 
263 1 12.3344 38.6911 -12.7591 0.00037857 1 
264 1 10.2039 36.9645 -11.9567 0.000482736 1 
265 1 10.4603 39.558 -10.7738 0.000850091 1 
266 1 8.32771 37.8331 -9.98291 0.000945321 1 
267 1 11.017 37.2052 -9.20297 0.00130538 1 
268 1 8.8846 35.4776 -8.41788 0.0012652 1 
269 1 9.15193 38.059 -7.23271 0.0029232 1 
270 1 7.01452 36.334 -6.45593 0.00455018 1 
271 1 9.71094 35.6903 -5.66765 0.0132325 1 
272 1 7.56346 33.9781 -4.87524 0.0435637 1 
273 1 7.84379 36.5147 -3.70026 0.126389 1 
274 1 5.70586 34.7977 -2.8722 0.359029 1 
275 1 8.50958 34.2514 -2.13437 4.68326 5 
276 1 6.5798 32.41 -1.36266 8.10528 5 
277 1 14.4653 40.4217 -13.5735 0.000224966 1 
278 1 13.1402 38.9391 -10.0068 0.00107229 1 
279 1 11.2757 39.797 -8.01573 0.003124 1 
280 1 13.9499 39.1781 -7.24775 0.00857339 1 
281 1 11.8394 37.4309 -6.44423 0.0156521 1 
282 1 12.1024 40.0158 -5.25602 0.0705058 1 
283 1 9.98757 38.2567 -4.49049 0.19366 1 
284 1 12.6094 37.6953 -3.60964 0.241783 1 
285 1 10.5309 35.9846 -2.88254 0.707794 1 
286 1 10.7779 38.6947 -1.4501 6.69337 5 
287 1 8.71313 36.9013 -0.803351 5.50848 5 
288 1 14.7179 39.4242 -4.44476 0.0505574 1 
289 1 12.8478 40.303 -2.33587 1.44926 5 
290 1 15.463 39.7504 -1.68016 2.20919 5 
291 1 13.3657 37.6523 -0.829945 5.47126 5 
499 1 0.302335 24.661 -13.9498 0.000135858 1 
535 1 2.45429 26.375 -14.7198 0.000162562 1 
536 1 2.71494 28.9753 -13.5407 0.000281679 1 
537 1 0.562829 27.2638 -12.7745 0.000225711 1 
538 1 3.25612 26.6439 -11.9747 0.000369058 1 
539 1 1.09895 24.936 -11.211 0.000428814 1 
540 1 1.35706 27.5371 -10.0341 0.000804842 1 
541 1 1.88224 25.2133 -8.47476 0.00304756 1 
542 1 0.472742 23.7938 -4.91799 0.110089 1 
570 1 4.86113 30.6861 -14.3142 0.000251994 1 
571 1 7.54956 30.0602 -13.5244 0.000250289 1 
572 1 5.40629 28.3504 -12.743 0.000469118 1 
573 1 5.66594 30.9434 -11.5621 0.000593003 1 
574 1 3.51625 29.2411 -10.7913 0.000832854 1 
575 1 6.21177 28.6061 -9.98821 0.00152171 1 
576 1 4.05438 26.9116 -9.22816 0.00127065 1 
577 1 4.31592 29.5024 -8.03767 0.00395864 1 
578 1 2.14254 27.8124 -7.29607 0.00643444 1 
579 1 4.85188 27.1802 -6.48111 0.0176988 1 
580 1 2.64701 25.4988 -5.7572 0.0467221 1 
581 1 2.90901 28.0826 -4.54509 0.172163 1 
582 1 0.646187 26.3775 -3.82373 0.561405 1 
583 1 3.51669 25.7954 -3.11116 0.500626 1 
584 1 1.16936 24.2129 -2.03426 6.6486 5 
585 1 1.70518 26.9362 -1.42595 9.05251 5 
606 1 9.68866 31.776 -14.3136 0.000223342 1 
607 1 9.94672 34.3706 -13.136 0.000325062 1 
608 1 7.80871 32.6529 -12.3461 0.000322828 1 
609 1 10.4972 32.0247 -11.5615 0.000486007 1 
610 1 8.35729 30.3093 -10.7721 0.000494974 1 
611 1 8.61969 32.8948 -9.59583 0.000674847 1 
612 1 6.47378 31.1893 -8.80736 0.00149508 1 
613 1 9.17189 30.5459 -8.02086 0.00341499 1 
614 1 7.02643 28.8504 -7.22884 0.00993211 1 
615 1 7.28804 31.4216 -6.04793 0.0291827 1 
616 1 5.12319 29.7545 -5.27908 0.068503 1 
617 1 7.89499 29.0617 -4.49049 0.178317 1 
618 1 5.73462 27.4312 -3.7717 0.180815 1 
619 1 6.08964 29.9532 -2.57478 1.45157 5 
620 1 3.91057 28.4212 -1.91025 6.83337 5 
621 1 6.63592 27.7242 -0.780945 2.87214 5 
633 1 14.2122 37.8222 -14.7439 0.000154533 1 
634 1 12.0799 36.0943 -13.9351 0.000276168 1 
635 1 14.7598 35.4786 -13.1694 0.00025077 1 
636 1 12.6304 33.749 -12.3583 0.000600485 1 
637 1 12.8861 36.3436 -11.1837 0.000749507 1 
638 1 10.7579 34.6147 -10.3835 0.000800877 1 
639 1 13.4416 33.994 -9.59959 0.00263387 1 
640 1 11.3129 32.2629 -8.80689 0.00124163 1 
641 1 11.5781 34.8473 -7.62656 0.0025851 1 
642 1 9.4393 33.121 -6.84663 0.00404981 1 
643 1 12.143 32.4933 -6.04951 0.00772624 1 
644 1 10.0215 30.7585 -5.28715 0.045335 1 
645 1 10.2897 33.3442 -4.11477 0.093639 1 
646 1 8.21233 31.6261 -3.36152 6.89991 5 
647 1 10.8194 30.916 -2.49224 6.62292 5 
648 1 8.66115 29.4535 -1.50162 5.91842 5 
653 1 19.0306 38.9471 -14.7997 0.000127224 1 
654 1 16.8926 37.212 -13.9854 0.000176858 1 
655 1 17.1459 39.8144 -12.82 0.000275905 1 
656 1 15.013 38.0775 -11.9993 0.000359308 1 
657 1 17.691 37.4712 -11.2488 0.000548028 1 
658 1 15.5621 35.7303 -10.4222 0.000717989 1 
659 1 15.8138 38.3288 -9.25385 0.00140679 1 
660 1 13.6961 36.5854 -8.42681 0.0037459 1 
661 1 16.3588 35.9797 -7.67173 0.00474848 1 
662 1 14.258 34.2364 -6.82024 0.0187511 1 
663 1 14.4884 36.8296 -5.64504 0.0236239 1 
664 1 12.3965 35.0836 -4.84878 0.0303096 1 
665 1 15.0828 34.4488 -4.02083 0.199657 1 
666 1 12.9851 32.6724 -3.31115 1.25093 5 
667 1 13.2141 35.2247 -2.10719 3.59387 5 
668 1 11.1052 33.3402 -1.43681 8.56867 5 
670 1 19.8292 39.2137 -12.0687 0.000340749 1 
671 1 17.9441 40.0749 -10.0881 0.000871625 1 
672 1 20.6287 39.4831 -9.34423 0.00128673 1 
673 1 18.4855 37.7312 -8.51862 0.00344111 1 
674 1 18.7405 40.3374 -7.3629 0.00429804 1 
675 1 16.602 38.5814 -6.49997 0.0105267 1 
676 1 19.2785 37.995 -5.81456 0.0367206 1 
677 1 17.1558 36.2166 -4.9478 0.0659452 1 
678 1 17.3726 38.8354 -3.75837 0.354627 1 
679 1 15.2727 37.0304 -2.89768 0.728816 1 
680 1 18.1 36.4639 -2.35158 7.40455 5 
681 1 15.8659 34.7317 -0.98294 7.27319 5 
682 1 16.5243 37.5121 -0.53689 11.1991 5 
683 1 21.4335 39.76 -6.63135 0.00821783 1 
684 1 19.5457 40.605 -4.64585 0.07147 1 
685 1 22.2644 40.0695 -3.94017 0.0855752 1 
686 1 20.1658 38.2594 -3.19754 0.219444 1 
687 1 18.481 39.2738 -1.26168 5.86179 5 
688 1 21.0184 38.3014 -0.59006 8.25335 5 
689 1 23.0706 40.1847 -1.27532 6.84375 5 
997 1 2.73561 21.4434 -14.3307 0.000147335 1 
998 1 0.582129 19.729 -13.5607 0.000140754 1 
999 1 0.841008 22.3331 -12.3864 0.000224185 1 
1000 1 1.37756 20.0055 -10.8252 0.000522192 1 
1046 1 5.14624 25.7542 -13.9233 0.000318139 1 
1047 1 2.99591 24.0443 -13.1539 0.000221902 1 
1048 1 5.69014 23.4217 -12.3522 0.000623432 1 
1049 1 3.53543 21.7154 -11.5886 0.000399913 1 
1050 1 3.79381 24.3143 -10.4109 0.000802477 1 
1051 1 1.63042 22.6105 -9.64942 0.00138024 1 
1052 1 4.32779 21.9873 -8.84736 0.00202144 1 
1053 1 2.15728 20.2813 -8.09484 0.00492403 1 
1054 1 2.39886 22.8941 -6.92083 0.0151148 1 
1055 1 0.235157 21.1755 -6.14977 0.0145729 1 
1056 1 2.90614 20.5629 -5.39478 0.061926 1 
1057 1 0.720989 18.8421 -4.55211 0.0786929 1 
1058 1 0.94552 21.4568 -3.42656 0.248327 1 
1059 1 1.3042 19.0189 -1.82371 3.97865 5 
1096 1 7.29035 27.4655 -14.7023 0.000220442 1 
1097 1 9.97753 26.8412 -13.9143 0.000231331 1 
1098 1 7.83647 25.1289 -13.1279 0.000362293 1 
1099 1 8.09662 27.7208 -11.9491 0.000440779 1 
1100 1 5.95067 26.0158 -11.1712 0.000979277 1 
1101 1 8.64393 25.3819 -10.3719 0.000843954 1 
1102 1 6.49507 23.6833 -9.59705 0.0031106 1 
1103 1 6.75812 26.2702 -8.41442 0.00540759 1 
1104 1 4.58611 24.5845 -7.6751 0.00623343 1 
1105 1 7.30905 23.9334 -6.83275 0.0228219 1 
1106 1 5.10315 22.2616 -6.11461 0.019004 1 
1107 1 5.39837 24.8584 -4.96659 0.0622471 1 
1108 1 3.12117 23.2185 -4.20793 0.192294 1 
1109 1 5.8483 22.5742 -3.42629 0.376501 1 
1110 1 3.63308 20.9396 -2.76981 0.566819 1 
1111 1 3.91727 23.6358 -1.54208 1.58318 5 
1112 1 1.76819 21.8168 -0.857908 12.0231 5 
1113 1 4.51894 21.3699 -0.219887 7.3583 5 
1143 1 12.1147 28.5593 -14.7089 0.000217368 1 
1144 1 12.3727 31.1543 -13.5342 0.000309031 1 
1145 1 10.2371 29.4337 -12.7377 0.000338089 1 
1146 1 12.9219 28.81 -11.9552 0.00045254 1 
1147 1 10.786 27.0911 -11.1597 0.000419141 1 
1148 1 11.049 29.6781 -9.98231 0.000940713 1 
1149 1 8.90757 27.9663 -9.19332 0.00134031 1 
1150 1 11.602 27.3306 -8.403 0.00109142 1 
1151 1 9.46018 25.6219 -7.61382 0.00244005 1 
1152 1 9.73891 28.194 -6.43874 0.0122175 1 
1153 1 7.5949 26.5023 -5.65997 0.0445722 1 
1154 1 10.2696 25.8628 -4.83541 0.0438886 1 
1155 1 8.12403 24.1857 -4.01476 0.315881 1 
1156 1 8.42209 26.7822 -2.81409 0.351376 1 
1157 1 6.20459 25.1931 -2.20259 0.591845 1 
1158 1 9.1994 24.3318 -1.25902 5.37686 5 
1159 1 6.87106 22.8165 -0.918019 7.33897 5 
1181 1 14.5051 32.8804 -14.3401 0.000205674 1 
1182 1 17.1841 32.268 -13.5777 0.000208976 1 
1183 1 15.053 30.5364 -12.7617 0.000359188 1 
1184 1 15.3085 33.1329 -11.5908 0.000523433 1 
1185 1 13.1817 31.4021 -10.7796 0.000765309 1 
1186 1 15.8584 30.785 -10.0077 0.00101284 1 
1187 1 13.734 29.0532 -9.19662 0.00116879 1 
1188 1 13.9973 31.6435 -8.01779 0.00279722 1 
1189 1 11.8753 29.9101 -7.2219 0.00521146 1 
1190 1 14.5467 29.2833 -6.42853 0.00866848 1 
1191 1 12.4105 27.5595 -5.63136 0.009925 1 
1192 1 12.6847 30.1238 -4.44707 0.121476 1 
1193 1 10.527 28.4245 -3.62278 0.145401 1 
1194 1 13.2283 27.843 -2.8654 0.6474 1 
1195 1 11.1853 26.1232 -2.10723 4.70694 5 
1196 1 11.4159 28.7521 -0.789254 4.9428 5 
1210 1 19.3197 34.0028 -14.3945 0.000157936 1 
1211 1 19.5743 36.6074 -13.231 0.000230943 1 
1212 1 17.438 34.8687 -12.4125 0.000325294 1 
1213 1 20.1179 34.2655 -11.6618 0.000491711 1 
1214 1 17.9835 32.5231 -10.8355 0.000610531 1 
1215 1 18.2354 35.1247 -9.67656 0.00159757 1 
1216 1 16.1121 33.3813 -8.83699 0.00199297 1 
1217 1 18.7816 32.7734 -8.09664 0.00284169 1 
1218 1 16.6652 31.0249 -7.24661 0.00722128 1 
1219 1 16.9158 33.6183 -6.08036 0.0141867 1 
1220 1 14.8185 31.8648 -5.25349 0.0625214 1 
1221 1 17.4323 31.2729 -4.44486 0.0507863 1 
1222 1 15.3171 29.5475 -3.60347 0.237209 1 
1223 1 15.5643 32.1565 -2.33514 1.4503 5 
1224 1 13.4936 30.5539 -1.44203 5.5642 5 
1225 1 16.0847 29.5017 -0.831316 5.49828 5 
1232 1 23.8583 40.0821 -14.8494 7.58354e-05 1 
1233 1 21.7153 38.346 -14.0426 0.000117928 1 
1234 1 24.401 37.7492 -13.2834 0.00012369 1 
1235 1 22.2586 36.0088 -12.4764 0.00022812 1 
1236 1 22.5152 38.6199 -11.3137 0.00028909 1 
1237 1 20.3725 36.8729 -10.5028 0.000825323 1 
1238 1 23.0607 36.283 -9.75161 0.000730381 1 
1239 1 20.9181 34.5276 -8.93892 0.00197067 1 
1240 1 21.1749 37.1403 -7.78899 0.00441644 1 
1241 1 19.0344 35.3759 -6.96101 0.0129607 1 
1242 1 21.7316 34.7876 -6.23156 0.0122487 1 
1243 1 19.5673 33.0213 -5.3611 0.025889 1 
1244 1 19.8731 35.6222 -4.30151 0.104968 1 
1245 1 17.6898 33.869 -3.29955 0.206722 1 
1246 1 20.3926 33.3249 -2.66881 0.261366 1 
1247 1 18.1783 31.6006 -1.68273 2.22393 5 
1248 1 26.5442 39.4844 -14.089 0.00012871 1 
1249 1 24.6576 40.3621 -12.1178 0.000259673 1 
1250 1 27.3405 39.7712 -11.3586 0.000418177 1 
1251 1 25.2011 38.0318 -10.553 0.00045613 1 
1252 1 25.4583 40.6509 -9.38104 0.00223985 1 
1253 1 23.3196 38.9005 -8.58749 0.00116741 1 
1254 1 26.0038 38.3258 -7.81902 0.00248576 1 
1255 1 23.8737 36.5639 -7.0327 0.0036634 1 
1256 1 24.1361 39.1969 -5.86077 0.0052669 1 
1257 1 22.0055 37.4157 -5.10772 0.0221526 1 
1258 1 24.706 36.8558 -4.32238 0.25454 1 
1259 1 22.5528 35.0843 -3.52233 0.153786 1 
1260 1 22.8808 37.6688 -2.4574 1.50124 1 
1261 1 20.6853 35.8706 -1.59082 7.12513 5 
1262 1 23.3543 35.6516 -0.622142 5.86263 5 
1263 1 28.1318 40.0684 -8.62495 0.00201285 1 
1264 1 28.9138 40.3748 -5.88707 0.0144739 1 
1265 1 26.8122 38.6262 -5.0774 0.053536 1 
1266 1 24.9616 39.4891 -3.14796 1.82232 5 
1267 1 27.5575 38.9786 -2.22056 2.06988 5 
1268 1 25.4363 37.437 -1.29709 7.08161 5 
1269 1 29.6645 40.7142 -3.12875 0.187334 1 
1606 1 0.321734 17.1245 -14.733 0.000102683 1 
1607 1 0.861922 14.7971 -13.1711 0.000153565 1 
1669 1 5.16847 18.2254 -14.712 0.000172324 1 
1670 1 3.01616 16.5123 -13.9423 0.000133434 1 
1671 1 3.27629 19.1145 -12.7664 0.00021684 1 
1672 1 1.12105 17.4017 -11.9977 0.000224967 1 
1673 1 3.81318 16.7875 -11.2029 0.000435827 1 
1674 1 1.65669 15.0772 -10.4333 0.000644367 1 
1675 1 1.90898 17.6795 -9.2586 0.00122153 1 
1676 1 2.43616 15.359 -7.6844 0.00676753 1 
1677 1 0.285074 13.6458 -6.93863 0.00661585 1 
1678 1 0.535727 16.2451 -5.71349 0.0602256 1 
1679 1 1.04364 13.8998 -4.19471 0.107654 1 
1734 1 7.57641 22.5344 -14.3066 0.000306101 1 
1735 1 5.4294 20.8248 -13.5327 0.000318146 1 
1736 1 8.12149 20.201 -12.7325 0.000576485 1 
1737 1 5.97091 18.4952 -11.9655 0.000411594 1 
1738 1 6.23219 21.092 -10.7814 0.00108421 1 
1739 1 4.07138 19.3884 -10.026 0.000847762 1 
1740 1 6.7702 18.7653 -9.21667 0.0015323 1 
1741 1 4.59699 17.066 -8.46616 0.00317507 1 
1742 1 4.85852 19.6656 -7.28819 0.00703527 1 
1743 1 2.67014 17.956 -6.51941 0.0150842 1 
1744 1 5.36251 17.3542 -5.74863 0.0488406 1 
1745 1 3.18753 15.6473 -4.91051 0.111741 1 
1746 1 3.36303 18.2336 -3.81316 0.571083 1 
1747 1 1.25576 16.4523 -2.87412 2.63609 5 
1748 1 3.88441 16.0684 -2.02587 6.66623 5 
1749 1 1.74766 14.0538 -1.28948 7.3295 5 
1796 1 12.4035 23.6241 -14.3061 0.000230793 1 
1797 1 10.2646 21.9097 -13.5146 0.000264308 1 
1798 1 10.5247 24.5015 -12.337 0.000296234 1 
1799 1 8.38244 22.7934 -11.5511 0.00075474 1 
1800 1 11.072 22.1616 -10.7577 0.000397873 1 
1801 1 8.92771 20.4597 -9.97307 0.00186763 1 
1802 1 9.19191 23.044 -8.78923 0.00205351 1 
1803 1 7.03474 21.357 -8.023 0.00597068 1 
1804 1 9.74162 20.7108 -7.20489 0.0116623 1 
1805 1 7.56924 19.0398 -6.46537 0.0199731 1 
1806 1 7.84558 21.621 -5.24916 0.0905302 1 
1807 1 5.62669 19.941 -4.53721 0.180458 1 
1808 1 8.45431 19.3001 -3.75274 0.177632 1 
1809 1 6.23568 17.6554 -3.10556 0.531528 1 
1810 1 6.63484 20.2984 -1.90581 6.80763 5 
1811 1 4.43345 18.802 -1.41967 8.98442 5 
1850 1 14.7963 27.9403 -13.9335 0.000272345 1 
1851 1 12.6627 26.2175 -13.1304 0.000318152 1 
1852 1 15.3444 25.5969 -12.3516 0.000585531 1 
1853 1 13.2111 23.8747 -11.5503 0.000431366 1 
1854 1 13.4726 26.464 -10.3734 0.000670192 1 
1855 1 11.335 24.7474 -9.58064 0.00037495 1 
1856 1 14.0234 24.1164 -8.79052 0.00108804 1 
1857 1 11.884 22.4036 -7.99943 0.00304683 1 
1858 1 12.148 24.9837 -6.82166 0.00498478 1 
1859 1 10.0075 23.2899 -6.0136 0.0243841 1 
1860 1 12.7239 22.6211 -5.25977 0.031915 1 
1861 1 10.608 20.9335 -4.45785 0.115888 1 
1862 1 10.9065 23.5083 -3.288 6.98275 5 
1863 1 8.82756 21.8386 -2.51578 1.11781 5 
1864 1 11.4073 21.2665 -1.49934 6.30092 5 
1865 1 9.35545 19.5869 -0.758602 2.75657 5 
1896 1 16.9292 29.6683 -14.745 0.000153618 1 
1897 1 19.6083 29.0587 -13.9853 0.000188095 1 
1898 1 17.4746 27.3254 -13.1667 0.000260754 1 
1899 1 17.7296 29.9237 -11.9996 0.000372018 1 
1900 1 15.6015 28.1905 -11.1798 0.000704968 1 
1901 1 18.2752 27.5777 -10.4182 0.000714392 1 
1902 1 16.1526 25.8435 -9.58999 0.00236492 1 
1903 1 16.4077 28.4337 -8.41979 0.00287727 1 
1904 1 14.2858 26.7015 -7.60903 0.00163806 1 
1905 1 16.9658 26.0861 -6.81091 0.0174637 1 
1906 1 14.8484 24.3469 -6.03111 0.00701689 1 
1907 1 15.0993 26.9354 -4.83568 0.0293763 1 
1908 1 12.9842 25.2042 -4.09226 0.0959675 1 
1909 1 15.687 24.5257 -3.29156 1.14823 1 
1910 1 13.5298 22.7701 -2.47553 6.82107 5 
1911 1 13.7857 25.1996 -1.42446 8.19737 5 
1935 1 21.7469 30.7943 -14.801 0.000131179 1 
1936 1 22.0027 33.4004 -13.6385 0.000184246 1 
1937 1 19.8632 31.6612 -12.8222 0.000279868 1 
1938 1 22.5451 31.0611 -12.0699 0.00035089 1 
1939 1 20.406 29.3181 -11.2483 0.000585712 1 
1940 1 20.6609 31.922 -10.0899 0.000897618 1 
1941 1 18.5289 30.1755 -9.25321 0.00136086 1 
1942 1 21.1996 29.5786 -8.51813 0.00355053 1 
1943 1 19.0701 27.8276 -7.66783 0.00481802 1 
1944 1 19.316 30.4288 -6.49958 0.0104833 1 
1945 1 17.1976 28.6783 -5.6397 0.0225654 1 
1946 1 19.8675 28.0649 -4.94579 0.0652848 1 
1947 1 17.7911 26.2976 -4.01536 0.194474 1 
1948 1 17.9851 28.8794 -2.89713 0.721859 1 
1949 1 15.9212 27.0762 -2.10547 3.56802 5 
1950 1 18.5768 26.5827 -0.98137 7.2681 5 
1966 1 24.1448 35.1383 -14.4475 8.83158e-05 1 
1967 1 26.8303 34.5411 -13.687 0.000112844 1 
1968 1 24.6878 32.803 -12.8807 0.000154039 1 
1969 1 24.9446 35.4155 -11.7179 0.000211787 1 
1970 1 22.8025 33.6698 -10.9113 0.000579629 1 
1971 1 25.4894 33.0814 -10.1521 0.000518145 1 
1972 1 23.3441 31.3308 -9.3453 0.00129836 1 
1973 1 23.6068 33.9437 -8.19201 0.0023461 1 
1974 1 21.4565 32.1851 -7.36462 0.00431381 1 
1975 1 24.1484 31.6082 -6.63242 0.0082066 1 
1976 1 21.9923 29.8429 -5.81459 0.0368022 1 
1977 1 22.261 32.4534 -4.64753 0.0714494 1 
1978 1 20.0868 30.6838 -3.75908 0.353673 1 
1979 1 22.8795 30.1083 -3.19785 0.219344 1 
1980 1 20.8131 28.3131 -2.35041 7.39784 5 
1981 1 21.1944 31.1232 -1.26253 5.85562 5 
1982 1 19.237 29.3626 -0.536746 11.1835 5 
1991 1 28.9748 36.2739 -14.4928 0.000142643 1 
1992 1 29.2308 38.8872 -13.3294 0.000231412 1 
1993 1 27.0859 37.1549 -12.5234 0.000181586 1 
1994 1 29.7701 36.5614 -11.7652 0.00038264 1 
1995 1 27.6286 34.8256 -10.9561 0.000394268 1 
1996 1 27.8821 37.4451 -9.79244 0.000598109 1 
1997 1 25.7475 35.7 -8.98875 0.000883693 1 
1998 1 28.4251 35.119 -8.21983 0.00386315 1 
1999 1 26.2956 33.3691 -7.42099 0.00365257 1 
2000 1 26.5545 35.994 -6.25368 0.021297 1 
2001 1 24.4152 34.2265 -5.47568 0.0238633 1 
2002 1 27.0898 33.6869 -4.66819 0.026022 1 
2003 1 24.9785 31.9184 -3.94107 0.0858342 1 
2004 1 25.1957 34.6192 -2.71338 0.626219 1 
2005 1 23.1863 32.8599 -1.97584 1.30493 5 
2006 1 25.7836 32.0342 -1.27617 6.84206 5 
2007 1 23.7318 30.1509 -0.590572 8.25135 5 
2009 1 31.3813 40.6129 -14.1309 0.000226657 1 
2010 1 34.0756 40.0087 -13.3649 0.00028173 1 
2011 1 31.92 38.2888 -12.5698 0.000410157 1 
2012 1 30.0236 39.1793 -10.6035 0.000691448 1 
2013 1 32.7121 38.5852 -9.85003 0.00140966 1 
2014 1 30.5595 36.8582 -9.03872 0.00166512 1 
2015 1 30.808 39.4808 -7.88121 0.00335717 1 
2016 1 28.6738 37.7446 -7.05686 0.00649093 1 
2017 1 31.3297 37.1693 -6.30992 0.00753453 1 
2018 1 29.194 35.4309 -5.45787 0.0214758 1 
2019 1 29.4236 38.0619 -4.29347 0.02823 1 
2020 1 27.2922 36.3419 -3.43532 0.231529 1 
2021 1 29.9453 35.7086 -2.73096 0.599459 1 
2022 1 27.8586 33.947 -1.93718 4.39197 5 
2023 1 28.0207 36.4449 -0.68892 5.59653 5 
2024 1 34.8765 40.3007 -10.6431 0.000865345 1 
2025 1 35.678 40.601 -7.93014 0.00310579 1 
2026 1 33.4936 38.8952 -7.13774 0.00602551 1 
2027 1 31.5685 39.7992 -5.16145 0.026929 1 
2028 1 34.259 39.2249 -4.43537 0.074409 1 
2029 1 32.0652 37.4951 -3.59558 0.274545 1 
2030 1 32.3488 40.1998 -2.4698 0.202356 1 
2031 1 30.1617 38.4781 -1.55696 1.86324 5 
2032 1 33.0918 37.9972 -1.10389 5.90654 5 
2033 1 31.1067 36.2597 -0.353552 11.8243 5 
2034 1 35.1264 39.6594 -1.81677 0.73718 1 
2440 1 0.601481 12.1912 -14.3443 0.000119725 1 
2441 1 3.29623 11.5805 -13.5559 0.000137731 1 
2442 1 1.14194 9.8634 -12.785 0.000180273 1 
2443 1 1.40039 12.4702 -11.6121 0.000267261 1 
2444 1 1.93765 10.1427 -10.0505 0.00088774 1 
2445 1 0.561856 8.71147 -6.55412 0.0116986 1 
2517 1 5.4498 13.2949 -14.3246 0.000154687 1 
2518 1 5.7103 15.8957 -13.146 0.000234136 1 
2519 1 3.55524 14.1846 -12.3796 0.000230765 1 
2520 1 6.24976 13.5672 -11.5815 0.000432694 1 
2521 1 4.09175 11.8565 -10.8197 0.000538314 1 
2522 1 4.34491 14.4621 -9.64202 0.00143733 1 
2523 1 2.18839 12.7501 -8.87772 0.00166522 1 
2524 1 4.87145 12.1316 -8.08895 0.00513031 1 
2525 1 2.71241 10.4193 -7.30464 0.00603219 1 
2526 1 2.94971 13.0255 -6.14451 0.0151748 1 
2527 1 0.782823 11.3189 -5.36614 0.0140901 1 
2528 1 3.43573 10.6894 -4.54757 0.0777762 1 
2529 1 1.30464 8.97242 -3.85675 0.438439 5 
2530 1 1.46331 11.5811 -2.60784 1.14949 5 
2531 1 1.69087 8.89722 -1.18991 8.81284 5 
2594 1 10.0048 19.3156 -14.6931 0.000247123 1 
2595 1 7.8608 17.6051 -13.9142 0.000365647 1 
2596 1 10.5506 16.9805 -13.1178 0.000385571 1 
2597 1 8.40463 15.2737 -12.343 0.000710781 1 
2598 1 8.6656 17.8684 -11.1593 0.00116272 1 
2599 1 6.50855 16.1668 -10.4017 0.00087514 1 
2600 1 9.20976 15.5364 -9.58561 0.00365061 1 
2601 1 7.04211 13.8396 -8.83968 0.00235466 1 
2602 1 7.30084 16.4396 -7.66535 0.00709515 1 
2603 1 5.11311 14.7466 -6.91318 0.0152947 1 
2604 1 7.81577 14.1153 -6.10834 0.0221397 1 
2605 1 5.62004 12.4127 -5.38915 0.0620672 1 
2606 1 5.83343 15.0726 -4.20029 0.195367 1 
2607 1 3.65887 13.3061 -3.42314 0.251538 1 
2608 1 6.34153 12.7875 -2.76266 0.599274 1 
2609 1 4.01862 10.8615 -1.81855 4.06229 5 
2610 1 4.47705 13.6609 -0.855478 12.0635 5 
2666 1 14.8281 20.4085 -14.7009 0.000226777 1 
2667 1 12.6912 18.6916 -13.9047 0.000248097 1 
2668 1 12.9508 21.2841 -12.7269 0.000339319 1 
2669 1 10.8109 19.5727 -11.9367 0.000464085 1 
2670 1 13.4987 18.9429 -11.1477 0.000441508 1 
2671 1 11.3576 17.2352 -10.3593 0.000852291 1 
2672 1 11.6205 19.8215 -9.17666 0.00143091 1 
2673 1 9.47311 18.126 -8.39844 0.00653132 1 
2674 1 12.1731 17.477 -7.59969 0.00193082 1 
2675 1 10.0239 15.7871 -6.81928 0.0269791 1 
2676 1 10.3107 18.36 -5.63923 0.0453944 1 
2677 1 8.11372 16.7166 -4.95839 0.0725032 1 
2678 1 10.8399 16.0257 -3.99573 0.363212 1 
2679 1 8.55111 14.4274 -3.42072 0.475604 1 
2680 1 8.91508 17.0519 -2.19803 0.620623 1 
2681 1 6.62359 15.4937 -1.53517 1.52766 5 
2682 1 9.58685 14.6742 -0.92536 7.30548 5 
2683 1 7.23614 13.2265 -0.219672 7.32909 5 
2731 1 17.219 24.7279 -14.3354 0.00021055 1 
2732 1 15.0862 23.003 -13.5263 0.000307234 1 
2733 1 17.7654 22.385 -12.7548 0.00035197 1 
2734 1 15.6342 20.66 -11.9453 0.000456727 1 
2735 1 15.8933 23.2521 -10.7692 0.000701677 1 
2736 1 13.7608 21.5308 -9.96796 0.000905969 1 
2737 1 16.445 20.9039 -9.18591 0.00108376 1 
2738 1 14.3135 19.1834 -8.38993 0.000830317 1 
2739 1 14.5841 21.7644 -7.2055 0.00390619 1 
2740 1 12.4494 20.052 -6.4188 0.00747213 1 
2741 1 15.1255 19.4101 -5.6228 0.00833437 1 
2742 1 12.9842 17.7121 -4.82316 0.0434899 1 
2743 1 13.2476 20.2745 -3.61626 0.116953 1 
2744 1 11.1377 18.6306 -2.80354 0.337166 1 
2745 1 13.905 17.9703 -2.10046 4.72399 5 
2746 1 11.9129 16.1849 -1.25686 5.28821 5 
2787 1 22.0337 25.8502 -14.3925 0.000171942 1 
2788 1 19.8972 24.1157 -13.5736 0.00022187 1 
2789 1 20.1517 26.716 -12.4098 0.000351856 1 
2790 1 18.0209 24.9811 -11.5849 0.000519308 1 
2791 1 20.6957 24.3712 -10.8313 0.000634485 1 
2792 1 18.5696 22.6342 -10.0004 0.000950244 1 
2793 1 18.8227 25.2299 -8.8308 0.00193457 1 
2794 1 16.7065 23.4944 -8.00635 0.00243076 1 
2795 1 19.3758 22.8745 -7.24013 0.00639961 1 
2796 1 17.2578 21.1346 -6.4189 0.00737739 1 
2797 1 17.5263 23.7164 -5.24228 0.0546267 1 
2798 1 15.3954 21.9779 -4.43252 0.109201 1 
2799 1 18.0336 21.3956 -3.59942 0.225765 1 
2800 1 15.9471 19.6888 -2.86095 0.620376 1 
2801 1 16.2165 22.3923 -1.43956 5.59011 5 
2802 1 14.1448 20.5954 -0.780938 4.97461 5 
2836 1 24.4308 30.1935 -14.0432 0.000122785 1 
2837 1 22.2892 28.4546 -13.2305 0.00024853 1 
2838 1 24.9731 27.8564 -12.4759 0.000241698 1 
2839 1 22.8313 26.1132 -11.6599 0.000525474 1 
2840 1 23.0868 28.7204 -10.5024 0.000868958 1 
2841 1 20.9481 26.9724 -9.67387 0.00168339 1 
2842 1 23.6312 26.3756 -8.93741 0.00201302 1 
2843 1 21.4933 24.6219 -8.09319 0.0027923 1 
2844 1 21.7467 27.224 -6.95915 0.0130143 1 
2845 1 19.6259 25.4672 -6.0757 0.013223 1 
2846 1 22.2796 24.8705 -5.35893 0.0260598 1 
2847 1 20.1448 23.1225 -4.44124 0.0502752 1 
2848 1 20.4011 25.7184 -3.29688 0.206465 1 
2849 1 18.2763 24.0059 -2.33059 1.42995 5 
2850 1 20.8933 23.4503 -1.6807 2.22876 5 
2851 1 18.8106 21.3491 -0.828201 5.54633 5 
2876 1 26.5741 31.9299 -14.8505 7.96932e-05 1 
2877 1 29.2596 31.3322 -14.0899 0.000135198 1 
2878 1 27.116 29.5969 -13.2837 0.000127241 1 
2879 1 27.3729 32.2101 -12.1192 0.000263488 1 
2880 1 25.2304 30.4676 -11.3144 0.000294542 1 
2881 1 27.9158 29.8799 -10.5535 0.000457273 1 
2882 1 25.7748 28.1309 -9.75135 0.000749765 1 
2883 1 26.0343 30.7486 -8.58831 0.00116971 1 
2884 1 23.8888 28.9883 -7.78878 0.00446658 1 
2885 1 26.5876 28.4124 -7.03276 0.00364268 1 
2886 1 24.4449 26.6364 -6.23072 0.0122591 1 
2887 1 24.7192 29.2644 -5.10772 0.0220181 1 
2888 1 22.586 27.471 -4.30049 0.105073 1 
2889 1 25.2667 26.9337 -3.52193 0.153363 1 
2890 1 23.1065 25.1745 -2.66774 0.261453 1 
2891 1 23.3988 27.7199 -1.59036 7.12294 5 
2909 1 31.4064 33.0618 -14.8947 0.00016038 1 
2910 1 31.6632 35.6746 -13.7322 0.000264924 1 
2911 1 29.5154 33.9457 -12.9271 0.000225501 1 
2912 1 32.2017 33.3497 -12.169 0.00047191 1 
2913 1 30.0555 31.6192 -11.3599 0.000435306 1 
2914 1 30.3087 34.2374 -10.1982 0.000893165 1 
2915 1 28.173 32.4994 -9.38275 0.0022513 1 
2916 1 30.846 31.9168 -8.62685 0.0021018 1 
2917 1 28.718 30.1743 -7.81983 0.00248652 1 
2918 1 28.9716 32.8048 -6.62363 0.0201954 1 
2919 1 26.8502 31.0456 -5.86159 0.00530186 1 
2920 1 29.5259 30.4751 -5.07837 0.0530918 1 
2921 1 27.42 28.7049 -4.32264 0.252296 1 
2922 1 27.675 31.338 -3.14852 1.81877 5 
2923 1 25.5946 29.518 -2.45746 1.49505 1 
2924 1 28.1508 29.2846 -1.2985 7.06357 5 
2925 1 26.0688 27.5008 -0.622368 5.8558 5 
2935 1 33.8158 37.397 -14.53 0.000195099 1 
2936 1 36.5117 36.7891 -13.7598 0.000231587 1 
2937 1 34.3555 35.0729 -12.9694 0.000392744 1 
2938 1 34.6149 37.6867 -11.8063 0.000551085 1 
2939 1 32.4567 35.9667 -11.0095 0.000927322 1 
2940 1 35.1512 35.3673 -10.2509 0.00125913 1 
2941 1 32.9898 33.6464 -9.44862 0.00203525 1 
2942 1 33.2407 36.2699 -8.2956 0.00452774 1 
2943 1 31.0887 34.5414 -7.46616 0.00460397 1 
2944 1 33.7703 33.9516 -6.74782 0.0129751 1 
2945 1 31.6268 32.2233 -5.88962 0.0147905 1 
2946 1 31.8585 34.8466 -4.75521 0.0489274 1 
2947 1 29.7627 33.1058 -3.83019 0.202778 1 
2948 1 32.3763 32.5617 -3.13165 0.184629 1 
2949 1 30.2708 30.8272 -2.22197 2.0673 5 
2950 1 30.4689 33.4377 -0.819495 7.44923 5 
2953 1 38.6644 38.5004 -14.5476 0.000210768 1 
2954 1 36.7739 39.3993 -12.5923 0.000349029 1 
2955 1 39.474 38.782 -11.8119 0.000790511 1 
2956 1 37.3162 37.0783 -11.0333 0.000679299 1 
2957 1 37.5818 39.6891 -9.86515 0.00112858 1 
2958 1 35.411 37.9849 -9.08971 0.00188567 1 
2959 1 38.1238 37.3746 -8.3099 0.00249197 1 
2960 1 35.9448 35.6712 -7.54636 0.00461748 1 
2961 1 36.2023 38.2943 -6.38721 0.0107486 1 
2962 1 34.0117 36.5862 -5.60871 0.0361083 1 
2963 1 36.7599 35.9928 -4.86806 0.0220626 1 
2964 1 34.5753 34.2701 -4.09512 0.0983902 1 
2965 1 34.8531 36.9138 -3.00817 0.209539 1 
2966 1 32.7457 35.1846 -2.14821 7.64238 5 
2967 1 35.3447 34.6423 -1.39573 7.21439 5 
2968 1 41.6206 40.4838 -12.6044 0.0003182 1 
2969 1 40.2897 39.0655 -9.07064 0.00452538 1 
2970 1 38.3917 39.984 -7.14025 0.00523366 1 
2971 1 41.1186 39.3497 -6.31149 0.0388885 1 
2972 1 38.9457 37.6818 -5.58904 0.0108798 1 
2973 1 39.188 40.2939 -4.42809 0.0538879 1 
2974 1 37.0096 38.6311 -3.72801 0.0575217 1 
2975 1 39.7744 37.9842 -2.87307 3.5425 5 
2976 1 37.6044 36.3614 -2.19617 1.77838 5 
2977 1 37.7603 38.9232 -1.0975 7.53888 5 
2978 1 35.6308 37.1256 -0.41289 8.57474 5 
2979 1 41.9722 39.6091 -3.53386 0.62732 1 
2980 1 40.0057 40.5301 -1.79903 5.74941 5 
3360 1 0.881029 7.25711 -13.9573 0.000157613 1 
3361 1 1.42023 4.93009 -12.4025 0.000229416 1 
3362 1 0.0632325 3.49288 -8.91056 0.00113778 1 
3446 1 3.03571 8.97619 -14.7307 9.8553e-05 1 
3447 1 5.72988 8.36381 -13.9405 0.000133679 1 
3448 1 3.57568 6.64841 -13.1712 0.000159874 1 
3449 1 3.83492 9.25266 -11.9945 0.0002275 1 
3450 1 1.68077 7.5373 -11.2253 0.000460422 1 
3451 1 4.36998 6.92682 -10.4322 0.000723581 1 
3452 1 2.21607 5.21177 -9.67251 0.00058737 1 
3453 1 2.47229 7.81854 -8.48149 0.0038399 1 
3454 1 0.316609 6.1052 -7.73325 0.00365269 1 
3455 1 2.99942 5.48876 -6.93645 0.00628314 1 