ITEM: TIMESTEP
0
ITEM: NUMBER OF ATOMS
9046
ITEM: BOX BOUNDS xy xz yz pp pp ss
0.0000000000000000e+00 3.3999877177700000e+02 2.3516712102200000e+02
0.0000000000000000e+00 4.8319873657999999e+01 0.0000000000000000e+00
-9.6652502443409773e+01 1.0327547599949442e+02 0.0000000000000000e+00
ITEM: ATOMS id type x y z c_csym c_cna 
1 1 314.28 45.1793 -3.18128 0.440731 1 
2 1 313.89 47.3077 -0.908168 3.21365 5 
3 1 209.085 39.5676 -1.45565 5.39517 5 
4 1 209.326 42.2372 -2.35958 6.47666 5 
5 1 313.84 44.5471 -0.577945 6.92375 5 
6 1 311.637 43.0053 -1.61714 11.5532 5 
7 1 311.667 45.7189 -1.97535 0.609699 1 
8 1 309.033 46.0842 -0.69961 2.74352 5 
9 1 208.659 36.7661 -1.17398 11.2813 5 
10 1 308.971 43.1852 -0.525824 9.64623 5 
11 1 312.649 44.3738 -6.74658 0.0345852 1 
12 1 312.846 47.1467 -7.43519 0.00614153 1 
13 1 312.272 46.4033 -4.75508 0.0628904 1 
14 1 310.233 47.6599 -6.29935 0.011644 1 
15 1 209.68 35.5953 -5.6979 0.0375933 1 
16 1 209.327 37.6701 -3.73794 0.386648 1 
17 1 209.66 40.3339 -4.39817 0.108349 1 
18 1 207.341 38.8465 -5.32015 0.0336988 1 
19 1 207.605 41.5986 -6.01703 0.0309979 1 
20 1 207.113 40.8133 -3.31322 6.5025 5 
21 1 312.115 43.6579 -4.13639 0.375154 1 
22 1 205.032 42.0977 -4.89836 0.0838745 1 
23 1 310.022 44.8966 -5.62896 0.0307094 1 
24 1 309.482 44.1654 -2.98626 0.486079 1 
25 1 309.629 46.8882 -3.57774 0.0813671 1 
26 1 307.401 45.4113 -4.47273 0.0629856 1 
27 1 307.63 48.1579 -5.16877 0.113614 1 
28 1 307.014 47.3692 -2.3905 1.78566 5 
29 1 209.141 30.0896 -4.28488 0.268129 1 
30 1 209.433 32.8228 -5.02499 0.0539185 1 
31 1 208.955 32.0359 -2.37711 7.68434 5 
32 1 209.007 34.8302 -3.04238 4.05695 5 
33 1 206.857 33.3471 -3.82462 0.632492 1 
34 1 207.073 36.0822 -4.56106 0.234321 1 
35 1 206.365 35.2032 -1.45972 9.84379 5 
36 1 206.743 38.0914 -2.60314 5.25594 5 
37 1 204.559 36.5117 -3.48117 0.941916 5 
38 1 204.767 39.3172 -4.19268 0.0735544 1 
39 1 204.25 38.4667 -1.44687 10.8785 5 
40 1 204.563 41.1813 -2.17474 11.2258 5 
41 1 202.194 39.9102 -3.03141 4.92751 5 
42 1 307.304 42.603 -3.72805 6.46837 5 
43 1 306.866 44.6158 -1.81382 6.02478 5 
44 1 304.708 43.061 -2.66497 9.27859 5 
45 1 304.78 45.913 -3.25201 0.742643 1 
46 1 304.194 44.676 -0.583593 7.46519 5 
47 1 304.506 47.4208 -0.850129 8.92215 5 
48 1 302.134 46.4084 -2.09464 5.2163 5 
49 1 208.616 24.4982 -2.7294 1.63225 5 
50 1 208.822 27.4221 -3.6371 0.601424 1 
51 1 208.178 26.8368 -1.0978 7.2362 5 
52 1 208.218 29.5647 -1.47524 7.46993 5 
53 1 206.106 27.937 -2.45159 1.24251 5 
54 1 206.45 30.6371 -3.17018 1.32915 5 
55 1 206.682 32.3634 -1.00269 7.04072 5 
56 1 203.975 31.0844 -1.93776 6.2628 5 
57 1 204.385 33.6395 -2.75862 3.89414 5 
58 1 203.48 35.5062 -1.1681 4.15208 5 
59 1 200.804 35.3211 -0.991608 3.97608 5 
60 1 201.877 37.2086 -2.60794 7.87042 5 
61 1 199.42 37.6886 -1.3449 6.98301 5 
62 1 199.707 40.4811 -1.73678 5.31729 5 
63 1 301.958 43.5782 -1.78401 11.5729 5 
64 1 299.54 44.4937 -0.586205 6.10542 5 
65 1 299.4 47.218 -0.8948 7.83272 5 
66 1 103.556 19.0145 -1.67558 6.84939 5 
67 1 208.432 21.8353 -1.9065 1.8998 5 
68 1 205.744 22.0471 -0.718351 4.35518 5 
69 1 206.165 24.8683 -1.38229 6.74033 5 
70 1 203.435 25.5876 -0.916901 8.41687 5 
71 1 203.452 28.4767 -1.16691 2.93925 5 
72 1 202.139 32.9134 -0.94658 8.17384 5 
73 1 198.102 35.3154 -0.213003 10.6287 5 
74 1 100.802 19.1727 -0.619358 11.7912 5 
75 1 313.716 45.8511 -12.1334 0.000241462 1 
76 1 313.397 47.8804 -10.1367 0.000595408 1 
77 1 208.426 40.3259 -10.7103 0.000417574 1 
78 1 313.489 43.0884 -11.4208 0.000335235 1 
79 1 208.122 42.3485 -8.71786 0.00261089 1 
80 1 313.177 45.1159 -9.42791 0.00232371 1 
81 1 310.903 43.6023 -10.2976 0.000461964 1 
82 1 311.13 46.3659 -11.0092 0.000363785 1 
83 1 310.582 45.6327 -8.30636 0.00329423 1 
84 1 308.539 46.88 -9.88117 0.000804249 1 
85 1 207.943 34.8057 -9.28101 0.000472899 1 
86 1 208.188 37.5635 -9.99414 0.000365733 1 
87 1 207.641 36.8202 -7.28084 0.00635204 1 
88 1 207.888 39.5878 -8.01071 0.00284678 1 
89 1 205.606 38.0732 -8.87641 0.00116904 1 
90 1 205.842 40.8383 -9.58856 0.000320917 1 
91 1 205.307 40.0964 -6.8895 0.00350685 1 
92 1 310.367 42.8615 -7.59652 0.00554563 1 
93 1 203.257 41.3557 -8.46197 0.00170029 1 
94 1 308.315 44.1164 -9.16517 0.00141979 1 
95 1 307.775 43.3712 -6.44829 0.0226258 1 
96 1 307.978 46.1457 -7.17316 0.00453551 1 
97 1 305.73 44.6381 -8.03192 0.00375495 1 
98 1 305.947 47.4014 -8.73727 0.00440696 1 
99 1 305.381 46.6753 -6.00269 0.0260188 1 
100 1 303.369 47.9268 -7.60285 0.00527927 1 
101 1 209.447 28.0704 -6.28707 0.0500534 1 
102 1 207.436 29.2927 -7.84865 0.0114204 1 
103 1 207.694 32.0473 -8.5662 0.000749744 1 
104 1 207.13 31.3278 -5.85365 0.0318304 1 
105 1 207.394 34.0686 -6.57507 0.00585202 1 
106 1 205.105 32.553 -7.44907 0.00847049 1 
107 1 205.355 35.3123 -8.16007 0.00346086 1 
108 1 204.814 34.555 -5.46569 0.080733 1 
109 1 205.062 37.3259 -6.18158 0.0147388 1 
110 1 202.766 35.8115 -7.00669 0.0299389 1 
111 1 203.02 38.5903 -7.76239 0.0118163 1 
112 1 202.495 37.878 -5.11331 0.220958 1 
113 1 202.73 40.6192 -5.76701 0.0128467 1 
114 1 200.424 39.1241 -6.62077 0.0220049 1 
115 1 305.504 41.8751 -7.32656 0.00344932 1 
116 1 304.99 41.1433 -4.61783 0.0877352 1 
117 1 305.196 43.8983 -5.32815 0.0459949 1 
118 1 302.923 42.383 -6.17957 0.0206025 1 
119 1 303.154 45.1596 -6.91655 0.0147351 1 
120 1 302.624 44.4355 -4.25431 0.32524 1 
121 1 302.825 47.2008 -4.87071 0.0721623 1 
122 1 300.579 45.6755 -5.82854 0.0613847 1 
123 1 300.274 47.7006 -3.80652 0.434363 1 
124 1 104.53 20.515 -6.84624 0.0305717 1 
125 1 209.557 23.2768 -7.50816 0.010686 1 
126 1 209.011 22.5434 -4.78615 0.0692759 1 
127 1 209.221 25.2995 -5.4607 0.141929 1 
128 1 206.975 23.7778 -6.34409 0.0155664 1 
129 1 207.195 26.5194 -7.07145 0.0364027 1 
130 1 206.609 25.8058 -4.29258 0.359349 1 
131 1 206.812 28.5955 -5.15117 0.0828312 1 
132 1 204.602 27.0427 -5.99575 0.0716679 1 
133 1 204.84 29.7946 -6.72642 0.039477 1 
134 1 204.136 29.1226 -3.96592 0.7306 5 
135 1 204.535 31.7973 -4.77751 0.20135 1 
136 1 202.232 30.3072 -5.54469 0.710032 5 
137 1 202.509 33.0741 -6.30717 0.0402615 1 
138 1 201.985 32.3214 -3.63327 6.32094 5 
139 1 202.244 35.0516 -4.22706 5.17964 5 
140 1 199.921 33.572 -5.08567 0.16962 1 
141 1 200.201 36.3608 -5.85805 0.0947418 1 
142 1 199.481 35.61 -3.28205 3.59005 5 
143 1 199.84 38.4751 -3.93194 0.337375 1 
144 1 197.565 36.922 -4.76324 0.283185 1 
145 1 197.819 39.6476 -5.46865 0.04524 1 
146 1 197.282 38.9587 -2.69571 0.667836 1 
147 1 302.395 41.5702 -3.44727 0.664461 1 
148 1 300.043 40.1975 -4.26332 0.160986 1 
149 1 300.354 42.9092 -5.01534 0.162527 1 
150 1 299.66 42.2041 -2.27918 4.10786 5 
151 1 299.934 45.0042 -3.18427 0.713598 1 
152 1 297.699 43.4216 -3.95713 6.50994 5 
153 1 297.97 46.1538 -4.79462 0.201455 1 
154 1 297.278 45.4161 -2.02565 5.59213 5 
155 1 297.646 48.0386 -2.87374 8.28535 5 
156 1 295.327 46.6897 -3.56522 6.96067 5 
157 1 104.101 14.9532 -5.40921 0.0811286 1 
158 1 104.349 17.7216 -6.10366 0.0468938 1 
159 1 103.93 16.9388 -3.4094 5.78656 5 
160 1 104.018 19.8267 -4.19978 0.36993 1 
161 1 101.795 18.1959 -4.93942 0.157165 1 
162 1 206.776 21.0074 -5.68592 0.0440764 1 
163 1 101.433 20.2674 -3.01285 0.887904 1 
164 1 206.45 23.0036 -3.61051 0.190624 1 
165 1 204.205 21.4697 -4.54421 0.0779045 1 
166 1 204.402 24.2598 -5.22273 0.0835508 1 
167 1 203.938 23.45 -2.54041 4.81008 5 
168 1 204.014 26.3687 -3.36256 0.736322 1 
169 1 201.836 24.7342 -3.97888 1.01348 5 
170 1 201.969 27.6043 -4.84572 0.815961 5 
171 1 201.375 26.9988 -2.24196 6.34225 5 
172 1 201.317 29.9801 -2.20751 11.7009 5 
173 1 199.356 28.1843 -3.61824 1.41803 5 
174 1 199.709 30.8222 -4.33957 1.27864 5 
175 1 198.559 30.04 -1.20838 6.53682 5 
176 1 199.575 32.8128 -2.17938 10.0607 5 
177 1 197.189 31.2632 -3.30446 5.61887 5 
178 1 197.308 33.9921 -3.84457 1.34711 5 
179 1 197.14 32.8337 -0.958107 8.97467 5 
180 1 196.758 36.11 -2.26222 5.84676 5 
181 1 194.678 34.2485 -2.21332 9.98865 5 
182 1 194.966 37.5293 -3.67237 1.92588 5 
183 1 194.239 36.7787 -1.15509 10.6766 5 
184 1 194.835 39.5581 -1.39012 4.36791 5 
185 1 192.366 37.9908 -2.54971 5.84822 5 
186 1 297.429 40.7652 -3.00593 4.25638 5 
187 1 295.268 40.5607 -1.19423 7.36367 5 
188 1 295.058 43.8943 -3.0493 8.16552 5 
189 1 295.13 43.3668 -0.490351 9.15934 5 
190 1 294.842 46.2286 -0.687864 4.38824 5 
191 1 292.635 44.6047 -1.7952 2.31883 5 
192 1 292.845 47.3004 -2.26773 3.65456 5 
193 1 290.309 47.5736 -1.11814 8.76057 5 
194 1 103.519 9.49304 -3.75381 0.918695 1 
195 1 103.853 12.1795 -4.56418 0.179133 1 
196 1 103.172 11.4332 -1.66203 8.50094 5 
197 1 103.482 14.2401 -2.70885 6.22054 5 
198 1 101.283 12.5866 -3.45604 6.14796 5 
199 1 101.529 15.4103 -4.27006 0.204823 1 
200 1 100.984 14.5394 -1.50507 12.2839 5 
201 1 101.422 17.1872 -2.21536 11.2096 5 
202 1 98.9582 15.9818 -3.01196 6.57439 5 
203 1 99.2705 18.6483 -3.70149 6.0923 5 
204 1 203.57 20.6913 -1.86389 6.94631 5 
205 1 96.6346 19.061 -2.69286 6.86754 5 
206 1 201.596 21.9166 -3.41444 0.91342 5 
207 1 200.89 20.6793 -0.629203 10.1109 5 
208 1 201.539 23.301 -1.09132 11.9494 5 
209 1 199.006 22.4455 -2.18175 6.24778 5 
210 1 199.305 25.1438 -2.83249 6.2307 5 
211 1 198.61 27.1465 -1.12239 7.55861 5 
212 1 196.516 25.6506 -2.0142 5.39897 5 
213 1 196.619 28.5578 -2.47209 2.1333 5 
214 1 193.927 28.8894 -1.42155 6.33772 5 
215 1 194.733 31.501 -2.08305 6.85385 5 
216 1 192.414 32.5233 -1.01746 7.04749 5 
217 1 191.844 35.2896 -1.32942 10.6596 5 
218 1 188.811 35.1687 -0.957864 6.70536 5 
219 1 189.954 37.8703 -1.27352 5.53574 5 
220 1 292.988 41.9615 -1.58231 11.964 5 
221 1 289.954 44.7029 -0.618058 6.30531 5 
222 1 102.848 4.18566 -2.37812 2.85985 5 
223 1 103.366 6.75578 -3.2476 3.35634 5 
224 1 103.407 8.54003 -1.08255 6.25574 5 
225 1 100.9 7.05281 -2.01016 6.37503 5 
226 1 100.84 9.9023 -2.18902 8.41407 5 
227 1 98.1319 10.6946 -1.48652 8.35759 5 
228 1 98.6942 13.2269 -2.55865 6.46356 5 
229 1 96.3337 13.6259 -1.26581 3.44567 5 
230 1 96.4269 16.4845 -1.62286 3.0056 5 
231 1 198.712 19.6331 -1.83735 8.30285 5 
232 1 196.262 20.3842 -0.577622 6.92809 5 
233 1 196.312 23.1451 -0.907851 3.21169 5 
234 1 193.73 26.1399 -1.1242 9.31022 5 
235 1 102.829 1.35709 -2.16609 7.0803 5 
236 1 100.04 1.45195 -1.14668 7.26834 5 
237 1 100.122 4.34915 -1.13488 3.79942 5 
238 1 98.6357 8.00868 -0.88073 9.59283 5 
239 1 95.0941 11.1164 -0.432644 8.34097 5 
241 1 314.03 43.8217 -14.1302 7.51357e-05 1 
242 1 314.26 46.5831 -14.8463 4.20581e-05 1 
245 1 311.677 47.0975 -13.7204 5.32206e-05 1 
246 1 209.039 36.2688 -14.6934 6.37873e-05 1 
248 1 208.732 38.2983 -12.7014 9.26173e-05 1 
249 1 208.967 41.0601 -13.4161 0.000110184 1 
250 1 206.693 39.543 -14.2847 7.59205e-05 1 
252 1 206.383 41.5734 -12.292 0.000139467 1 
253 1 311.446 44.3358 -13.005 0.000104195 1 
254 1 309.176 42.8192 -13.8733 7.39037e-05 1 
255 1 309.409 45.5809 -14.5894 3.08891e-05 1 
256 1 308.861 44.8501 -11.8769 0.00017662 1 
257 1 309.092 47.6116 -12.5939 0.000107359 1 
258 1 306.825 46.0959 -13.4611 7.02616e-05 1 
259 1 306.505 48.1269 -11.4629 0.000512291 1 
260 1 208.559 30.7463 -13.2563 0.000149921 1 
261 1 208.799 33.5079 -13.9759 9.30169e-05 1 
262 1 208.249 32.7779 -11.2698 0.00019131 1 
263 1 208.492 35.538 -11.9861 0.000144726 1 
264 1 206.213 34.0193 -12.849 0.000189958 1 
265 1 206.454 36.7809 -13.5677 0.000121496 1 
266 1 205.905 36.0483 -10.8619 0.000487976 1 
267 1 206.148 38.8102 -11.5783 0.000228986 1 
268 1 203.869 37.2925 -12.4373 0.000175554 1 
269 1 204.109 40.0562 -13.1573 0.000144967 1 
270 1 203.563 39.3235 -10.4526 0.000884717 1 
271 1 308.63 42.0881 -11.1649 0.000285221 1 
272 1 201.526 40.5702 -12.0271 0.000267489 1 
273 1 306.593 43.334 -12.7444 0.000129917 1 
274 1 306.046 42.6049 -10.0338 0.000508828 1 
275 1 306.277 45.3674 -10.746 0.000557259 1 
276 1 304.012 43.8494 -11.6164 0.000183089 1 
277 1 304.244 46.6126 -12.3341 0.000197428 1 
278 1 303.697 45.8868 -9.61995 0.00152248 1 
279 1 301.664 47.1302 -11.2138 0.000539192 1 
280 1 208.082 25.2252 -11.8055 0.00032029 1 
281 1 208.319 27.9839 -12.5307 0.000232971 1 
282 1 207.761 27.252 -9.81216 0.00277892 1 
283 1 208.003 30.0166 -10.5506 0.000865257 1 
284 1 205.731 28.4929 -11.4019 0.000411334 1 
285 1 205.971 31.2572 -12.1282 0.000358034 1 
286 1 205.411 30.5261 -9.42422 0.00231471 1 
287 1 205.66 33.2877 -10.1445 0.000811268 1 
288 1 203.38 31.768 -10.9889 0.000742799 1 
289 1 203.625 34.5307 -11.7154 0.00038107 1 
290 1 203.068 33.7983 -9.00646 0.0028152 1 
291 1 203.318 36.557 -9.72674 0.00139252 1 
292 1 201.037 35.0429 -10.5689 0.00122987 1 
293 1 201.285 37.8046 -11.3018 0.000326817 1 
294 1 200.734 37.0726 -8.58381 0.0027295 1 
295 1 200.977 39.841 -9.31997 0.00168767 1 
296 1 198.704 38.3195 -10.166 0.000956662 1 
297 1 303.776 41.0854 -10.8961 0.00038349 1 
298 1 198.391 40.3615 -8.18267 0.0027106 1 
299 1 303.465 43.1205 -8.90194 0.000894211 1 
300 1 301.196 41.6 -9.7673 0.00105075 1 
301 1 301.434 44.3632 -10.4942 0.000476352 1 
302 1 300.888 43.63 -7.77555 0.00692603 1 
303 1 301.122 46.4045 -8.50984 0.00503044 1 
304 1 298.858 44.8746 -9.38566 0.00234757 1 
305 1 299.084 47.6491 -10.1045 0.00201279 1 
306 1 298.54 46.917 -7.42814 0.0190115 1 
307 1 296.494 48.1745 -8.98722 0.00527906 1 
308 1 104.854 18.4578 -8.80502 0.00317418 1 
309 1 102.802 19.7016 -10.3696 0.00101832 1 
310 1 207.853 22.4668 -11.0875 0.000688836 1 
311 1 207.308 21.7432 -8.37816 0.00619813 1 
312 1 207.525 24.4994 -9.08284 0.0020591 1 
313 1 205.268 22.9723 -9.94601 0.000954944 1 
314 1 205.494 25.731 -10.6699 0.000959261 1 
315 1 204.938 24.9982 -7.9445 0.0100697 1 
316 1 205.175 27.7584 -8.69329 0.00466427 1 
317 1 202.906 26.2345 -9.52103 0.00709997 1 
318 1 203.142 29.0047 -10.2671 0.00141981 1 
319 1 202.579 28.2705 -7.56674 0.028644 1 
320 1 202.815 31.0338 -8.26799 0.00733815 1 
321 1 200.554 29.5197 -9.11841 0.00277097 1 
322 1 200.795 32.2823 -9.83938 0.0013328 1 
323 1 200.232 31.5551 -7.10543 0.0113022 1 
324 1 200.477 34.3147 -7.83593 0.00852765 1 
325 1 198.219 32.8006 -8.69048 0.00210813 1 
326 1 198.456 35.5558 -9.41361 0.0063695 1 
327 1 197.911 34.8271 -6.65206 0.0706157 1 
328 1 198.153 37.5967 -7.45034 0.0134025 1 
329 1 195.881 36.067 -8.24822 0.0438759 1 
330 1 196.126 38.8394 -9.03802 0.00740892 1 
331 1 195.556 38.1512 -6.33825 0.0981499 1 
332 1 300.641 40.8886 -7.03562 0.0143906 1 
333 1 193.546 39.36 -7.91743 0.0160894 1 
334 1 298.621 42.1123 -8.6513 0.0020529 1 
335 1 298.076 41.398 -5.92084 0.0722416 1 
336 1 298.309 44.1292 -6.67343 0.0355083 1 
337 1 296.048 42.6233 -7.55898 0.0202663 1 
338 1 296.274 45.3974 -8.29357 0.00750865 1 
339 1 295.695 44.6962 -5.63039 0.0951967 1 
340 1 295.939 47.4371 -6.30614 0.027037 1 
341 1 293.672 45.938 -7.19964 0.021275 1 
342 1 293.352 47.9241 -5.16048 0.110703 1 
343 1 104.693 10.9005 -9.31589 0.00219414 1 
344 1 104.402 12.9084 -7.3202 0.0207906 1 
345 1 104.633 15.6897 -8.08922 0.00583895 1 
346 1 102.358 14.1629 -8.92229 0.0031472 1 
347 1 102.582 16.934 -9.65471 0.00100771 1 
348 1 102.06 16.1961 -6.95259 0.0109425 1 
349 1 102.273 18.9636 -7.65903 0.00977026 1 
350 1 100.005 17.4414 -8.51244 0.00285256 1 
351 1 100.221 20.2042 -9.22186 0.0032692 1 
352 1 99.702 19.4415 -6.48704 0.0413498 1 
353 1 204.73 22.2351 -7.23196 0.00666849 1 
354 1 202.482 20.7062 -8.08194 0.00440555 1 
355 1 202.685 23.4817 -8.79414 0.00440076 1 
356 1 202.153 22.7388 -6.07569 0.0267995 1 
357 1 202.343 25.5103 -6.75581 0.0763568 1 
358 1 200.109 23.9948 -7.65114 0.00704779 1 
359 1 200.324 26.7478 -8.37128 0.0121847 1 
360 1 199.767 26.0219 -5.60024 0.128586 1 
361 1 199.989 28.7973 -6.39599 0.0468366 1 
362 1 197.75 27.2559 -7.25355 0.00848799 1 
363 1 197.979 30.0337 -7.97606 0.00267331 1 
364 1 197.41 29.2784 -5.26961 0.135882 1 
365 1 197.676 32.0623 -5.96251 0.0426502 1 
366 1 195.408 30.5616 -6.84334 0.0192672 1 
367 1 195.657 33.3204 -7.54155 0.010144 1 
368 1 195.108 32.5773 -4.78026 0.605683 5 
369 1 195.35 35.3382 -5.44338 0.652813 5 
370 1 193.112 33.8451 -6.42001 0.0372182 1 
371 1 193.318 36.5963 -7.11309 0.0727343 1 
372 1 192.842 35.8213 -4.28138 1.3724 5 
373 1 192.955 38.7088 -5.17472 0.215315 1 
374 1 190.782 37.1093 -6.0208 0.12389 1 
375 1 295.806 39.8627 -6.80489 0.0322792 1 
376 1 295.226 39.1985 -3.97651 2.02285 5 
377 1 295.504 41.8863 -4.85884 1.62285 5 
378 1 293.249 40.3472 -5.69402 0.285093 1 
379 1 293.471 43.196 -6.55434 0.283188 1 
380 1 292.847 42.4862 -4.07417 7.28766 5 
381 1 293.068 45.2547 -4.49675 0.262159 1 
382 1 290.807 43.7016 -5.36221 0.235103 1 
383 1 291.081 46.4223 -6.078 0.0437524 1 
384 1 290.499 45.6881 -3.28402 0.278526 1 
385 1 288.501 46.8436 -4.97243 0.389734 1 
386 1 104.179 5.42906 -7.92918 0.0145407 1 
387 1 104.444 8.16277 -8.60749 0.00458772 1 
388 1 103.878 7.4728 -5.88258 0.0499647 1 
389 1 104.156 10.1785 -6.57706 0.0294633 1 
390 1 101.863 8.68049 -7.47357 0.0169374 1 
391 1 102.114 11.4101 -8.179 0.0049647 1 
392 1 101.576 10.6706 -5.44028 0.344997 1 
393 1 101.823 13.4142 -6.19915 0.0229172 1 
394 1 99.5357 11.9196 -7.0624 0.0101514 1 
395 1 99.7817 14.6772 -7.8012 0.00435157 1 
396 1 99.2485 13.9594 -5.11056 0.11933 1 
397 1 99.4951 16.6956 -5.79684 0.0312047 1 
398 1 97.2024 15.1841 -6.65639 0.0146339 1 
399 1 97.433 17.9351 -7.3596 0.00655956 1 
400 1 96.9496 17.1588 -4.61901 0.139867 1 
401 1 97.1446 19.9249 -5.36706 0.0465565 1 
402 1 94.8669 18.4256 -6.22423 0.0299032 1 
403 1 199.912 21.2141 -6.96421 0.0112662 1 
404 1 199.383 20.4717 -4.31334 0.250487 1 
405 1 199.581 23.2432 -4.94319 0.0516637 1 
406 1 197.316 21.7271 -5.85353 0.0319053 1 
407 1 197.53 24.4963 -6.52831 0.00982851 1 
408 1 196.998 23.7014 -3.82287 0.249434 1 
409 1 197.217 26.5266 -4.52212 0.280333 1 
410 1 194.94 24.986 -5.42561 0.0629421 1 
411 1 195.161 27.7691 -6.16724 0.0352458 1 
412 1 194.528 27.0264 -3.56608 0.494256 1 
413 1 194.808 29.7717 -4.1832 0.373584 1 
414 1 192.511 28.3294 -5.06027 0.127784 1 
415 1 192.842 31.0816 -5.71536 0.0468609 1 
416 1 192.216 30.3833 -2.96564 0.900531 1 
417 1 192.599 33.1106 -3.69808 1.22775 5 
418 1 190.288 31.5743 -4.6861 0.130176 1 
419 1 190.55 34.3238 -5.34867 0.0674937 1 
420 1 190.056 33.5054 -2.65486 4.85217 5 
421 1 190.19 36.2624 -3.42028 1.59566 5 
422 1 187.931 34.7873 -4.19034 4.01221 5 
423 1 188.194 37.6419 -5.01407 0.364015 1 
424 1 187.502 36.8766 -2.52558 9.80542 5 
425 1 292.778 39.6159 -2.83973 4.68002 5 
426 1 290.405 38.24 -3.84021 0.551857 1 
427 1 290.64 40.8901 -4.56131 0.271002 1 
428 1 290.224 40.2574 -1.71108 5.86987 5 
429 1 290.394 42.9083 -2.6193 5.22375 5 
430 1 288.085 41.3564 -3.36041 0.785171 1 
431 1 288.28 44.1827 -4.22151 0.315738 1 
432 1 287.64 43.4009 -1.72861 12.7786 5 
433 1 287.861 46.1854 -2.00903 6.20568 5 
434 1 285.611 44.728 -3.07408 5.06157 5 
435 1 285.878 47.391 -3.84249 6.042 5 
436 1 285.015 48.255 -0.030899 4.58877 5 
437 1 283.491 47.531 -2.38836 11.2236 5 
438 1 103.938 2.65782 -7.28852 0.0713948 1 
439 1 103.299 1.96685 -4.71079 0.698638 1 
440 1 103.59 4.72433 -5.25781 0.15282 1 
441 1 101.317 3.2018 -6.15751 0.139559 1 
442 1 101.593 5.97612 -6.7727 0.0447671 1 
443 1 101.032 5.23066 -4.11907 0.477111 1 
444 1 101.279 8.02897 -4.66623 0.553395 1 
445 1 99.0238 6.46311 -5.63156 0.0271457 1 
446 1 99.2897 9.18448 -6.33155 0.0259618 1 
447 1 98.7013 8.50251 -3.56956 0.976343 5 
448 1 99.026 11.144 -4.30759 0.760033 1 
449 1 96.7014 9.6651 -5.17665 0.191223 1 
450 1 96.9759 12.4351 -5.91491 0.066066 1 
451 1 96.317 11.6417 -3.27119 1.16232 5 
452 1 96.631 14.4791 -3.90381 0.33189 1 
453 1 94.3691 12.9737 -4.85635 0.134352 1 
454 1 94.6366 15.686 -5.5208 0.0382387 1 
455 1 94.0944 14.9735 -2.69757 0.723011 1 
456 1 94.3837 17.5826 -3.47511 0.670279 1 
457 1 92.079 16.1716 -4.39991 0.107441 1 
458 1 92.315 18.9369 -5.06877 0.208821 1 
459 1 91.7466 18.0746 -2.36105 6.47617 5 
460 1 196.702 21.0164 -3.18107 0.43945 1 
461 1 194.536 19.4968 -4.13642 0.374877 1 
462 1 194.692 22.2424 -4.75427 0.0625228 1 
463 1 194.089 21.5574 -1.97503 0.605146 1 
464 1 194.324 24.1376 -2.74573 0.812552 1 
465 1 192.05 22.7286 -3.57686 0.0808762 1 
466 1 192.301 25.4931 -4.27185 0.286274 1 
467 1 191.588 24.6641 -1.5415 6.08117 5 
468 1 191.779 27.587 -2.47481 0.997676 1 
469 1 189.649 26.1251 -3.39543 0.87746 1 
470 1 189.86 28.9021 -3.96377 1.30082 5 
471 1 189.178 28.355 -1.26802 1.90953 5 
472 1 189.669 30.9214 -1.96001 4.43277 5 
473 1 186.899 29.9776 -2.01299 9.36641 5 
474 1 187.713 32.0643 -3.65192 7.28861 5 
475 1 187.833 32.6606 -0.993424 4.3245 5 
476 1 185.295 32.4892 -2.29339 7.35369 5 
477 1 185.272 35.2429 -3.00042 5.92273 5 
478 1 185.083 37.3757 -1.28863 7.64552 5 
479 1 182.662 35.9392 -1.92176 3.34526 5 
480 1 287.837 38.7423 -2.6327 0.366066 1 
481 1 285.372 39.2594 -1.40443 1.6358 5 
482 1 285.216 42.0729 -1.87838 8.10226 5 
483 1 285.318 45.4791 -0.491122 7.76182 5 
484 1 282.999 44.8084 -1.89314 11.281 5 
485 1 280.597 46.4787 -0.580411 6.37588 5 
486 1 101.097 0.369585 -5.30793 0.488796 5 
487 1 100.74 2.5506 -3.48813 1.98576 5 
488 1 98.6221 0.83319 -4.02021 6.2966 5 
489 1 98.7318 3.69711 -4.98509 0.254145 1 
490 1 98.0165 3.00948 -2.30409 6.9445 5 
491 1 98.5462 5.74082 -2.93289 2.38712 5 
492 1 96.1097 4.13896 -3.92534 0.777184 1 
493 1 96.4781 6.95298 -4.48279 0.415036 1 
494 1 96.0885 5.85068 -1.88275 8.96775 5 
495 1 96.062 8.82102 -2.1206 7.69287 5 
496 1 93.9438 7.4256 -3.45693 1.2022 5 
497 1 94.1159 10.1548 -4.14749 0.383534 1 
498 1 93.3077 9.50166 -1.46743 11.095 5 
499 1 93.669 12.2139 -2.32967 3.32779 5 
500 1 91.4268 10.6702 -3.04712 4.0627 5 
501 1 91.7475 13.5072 -3.73973 0.376218 1 
502 1 91.0848 12.6037 -1.17416 11.3004 5 
503 1 91.5044 15.4064 -1.45763 5.40276 5 
504 1 89.1652 13.9288 -2.60262 5.23119 5 
505 1 89.5327 16.652 -3.31402 6.51493 5 
506 1 194.058 18.8437 -1.61707 11.5579 5 
507 1 86.9824 17.0212 -2.17454 11.2295 5 
508 1 191.903 20.0053 -2.98574 0.485791 1 
509 1 191.392 19.0248 -0.525297 9.65397 5 
510 1 191.455 21.9238 -0.699207 2.7372 5 
511 1 189.288 20.4574 -1.81269 6.02346 5 
512 1 189.438 23.2115 -2.39127 1.7874 5 
513 1 189.06 25.5832 -0.912089 8.75459 5 
514 1 186.935 23.2644 -0.853753 8.97893 5 
515 1 187.047 26.9695 -2.23389 5.83347 5 
516 1 184.337 27.1684 -1.06655 6.70575 5 
517 1 184.139 30.0391 -1.02092 5.90194 5 
518 1 183.057 33.2396 -1.01628 10.1079 5 
519 1 179.869 36.5161 -1.02128 8.37656 5 
520 1 280.719 43.6604 -0.44273 12.2764 5 
521 1 95.9234 1.39818 -3.14975 4.91896 5 
522 1 95.2586 3.13701 -1.14269 8.66055 5 
523 1 93.1804 1.86525 -2.26432 10.6405 5 
524 1 93.4463 4.78112 -2.55417 3.27373 5 
525 1 93.9823 7.01035 -0.764816 5.72716 5 
526 1 90.624 5.412 -1.47171 7.41137 5 
527 1 91.3746 7.87443 -2.38046 7.75411 5 
528 1 89.1024 8.20449 -1.0048 6.98805 5 
529 1 88.7855 11.0444 -1.46027 9.84956 5 
530 1 85.9002 11.3459 -1.16851 4.16588 5 
531 1 86.6709 14.306 -1.44624 10.8706 5 
532 1 186.615 20.5208 -0.582197 7.54479 5 
533 1 90.5891 2.68897 -1.09555 7.11265 5 
567 1 206.525 31.9882 -14.8368 8.36616e-05 1 
571 1 204.179 35.2623 -14.4267 9.2368e-05 1 
575 1 201.835 38.537 -14.0163 8.63288e-05 1 
576 1 202.073 41.3007 -14.7382 6.33399e-05 1 
579 1 304.324 41.8143 -13.6097 0.000104625 1 
580 1 304.559 44.5781 -14.33 5.48966e-05 1 
583 1 301.98 45.093 -13.2066 0.000109867 1 
584 1 302.211 47.8575 -13.9243 8.38716e-05 1 
585 1 299.946 46.338 -14.7974 8.65893e-05 1 
588 1 208.403 23.1935 -13.7999 0.000106794 1 
589 1 208.636 25.9538 -14.5206 6.5633e-05 1 
592 1 206.049 26.4638 -13.388 0.000160494 1 
593 1 206.286 29.2256 -14.1136 8.0563e-05 1 
594 1 204.017 27.7065 -14.9693 0.000106407 1 
596 1 203.699 29.7371 -12.9796 0.000147092 1 
597 1 203.938 32.5 -13.7035 0.000141964 1 
598 1 201.669 30.9816 -14.5588 0.000101968 1 
600 1 201.352 33.0127 -12.5639 0.000306332 1 
601 1 201.594 35.7742 -13.2904 0.000228195 1 
602 1 199.325 34.2568 -14.1469 0.000152961 1 
603 1 199.564 37.0178 -14.8736 0.00014061 1 
604 1 199.012 36.2865 -12.1498 0.000834368 1 
605 1 199.254 39.0496 -12.8841 0.000195637 1 
606 1 196.985 37.5298 -13.7404 0.000505992 1 
607 1 197.224 40.2933 -14.473 0.000118311 1 
608 1 196.676 39.5629 -11.7555 0.000590491 1 
609 1 301.745 42.3278 -12.4843 0.000174456 1 
610 1 299.478 40.8063 -13.3505 0.000208755 1 
611 1 299.713 43.572 -14.0773 0.000129975 1 
612 1 299.168 42.841 -11.3669 0.000419507 1 
613 1 299.401 45.6084 -12.0902 0.000295908 1 
614 1 297.134 44.0873 -12.9627 0.000378532 1 
615 1 297.365 46.8551 -13.6801 0.000208122 1 
616 1 296.82 46.1279 -10.9801 0.000878277 1 
617 1 294.782 47.3729 -12.5675 0.000572161 1 
618 1 103.43 15.6354 -14.3521 9.69239e-05 1 
620 1 103.118 17.6673 -12.362 0.00021467 1 
621 1 103.343 20.4313 -13.0804 0.000184095 1 
622 1 101.077 18.9114 -13.9406 0.000104505 1 
623 1 206.137 21.673 -14.6596 7.88144e-05 1 
624 1 205.591 20.9417 -11.9428 0.000401416 1 
625 1 205.817 23.7035 -12.6645 0.000157071 1 
626 1 203.554 22.1842 -13.5241 0.000147076 1 
627 1 203.783 24.9452 -14.2455 0.000115643 1 
628 1 203.232 24.2122 -11.5238 0.000492007 1 
629 1 203.463 26.9728 -12.2494 0.000647671 1 
630 1 201.2 25.4567 -13.109 0.000183709 1 
631 1 201.433 28.2185 -13.833 0.000223621 1 
632 1 200.879 27.4841 -11.1082 0.00136491 1 
633 1 201.113 30.2502 -11.8396 0.000411645 1 
634 1 198.852 28.7325 -12.6987 0.000184124 1 
635 1 199.087 31.4958 -13.4225 0.000157614 1 
636 1 198.534 30.7662 -10.6994 0.000453571 1 
637 1 198.771 33.5277 -11.4216 0.000474736 1 
638 1 196.509 32.0119 -12.2885 0.000262556 1 
639 1 196.746 34.771 -13.0115 0.000314086 1 
640 1 196.197 34.045 -10.2799 0.00161586 1 
641 1 196.434 36.7982 -11.0074 0.00432191 1 
642 1 194.171 35.2858 -11.8821 0.000418795 1 
643 1 194.409 38.0423 -12.6134 0.000863783 1 
644 1 193.863 37.312 -9.8785 0.00745597 1 
645 1 298.931 40.0771 -10.6348 0.0010013 1 
646 1 191.833 38.556 -11.4961 0.000971246 1 
647 1 296.899 41.3197 -12.2349 0.000393177 1 
648 1 296.354 40.59 -9.52376 0.0010834 1 
649 1 296.591 43.3555 -10.2617 0.00197453 1 
650 1 294.317 41.8327 -11.124 0.00195985 1 
651 1 294.551 44.6043 -11.8553 0.00181425 1 
652 1 294.007 43.8812 -9.17944 0.0203757 1 
653 1 294.233 46.6499 -9.87772 0.00266553 1 
654 1 291.96 45.1195 -10.7438 0.00246421 1 
655 1 292.194 47.8882 -11.4562 0.00109081 1 
656 1 291.639 47.1599 -8.77072 0.00488195 1 
657 1 102.959 10.1204 -12.9132 0.00025569 1 
658 1 103.197 12.8752 -13.6307 0.000166419 1 
659 1 102.656 12.1437 -10.9114 0.000939711 1 
660 1 102.891 14.9019 -11.6388 0.000509401 1 
661 1 100.617 13.3883 -12.5028 0.000193623 1 
662 1 100.849 16.149 -13.2223 0.000126855 1 
663 1 100.312 15.4146 -10.5094 0.00049732 1 
664 1 100.536 18.179 -11.2265 0.000431048 1 
665 1 98.2696 16.6607 -12.09 0.000208318 1 
666 1 98.4959 19.4228 -12.8054 0.000202982 1 
667 1 97.9587 18.6858 -10.0861 0.000810514 1 
668 1 203.011 21.4507 -10.8027 0.000771113 1 
669 1 200.75 19.9332 -11.6717 0.000294579 1 
670 1 200.973 22.6954 -12.3889 0.000211933 1 
671 1 200.435 21.9611 -9.6681 0.00152317 1 
672 1 200.651 24.7231 -10.3835 0.000775407 1 
673 1 198.394 23.207 -11.2588 0.000279924 1 
674 1 198.621 25.9693 -11.9763 0.000165213 1 
675 1 198.074 25.2336 -9.25353 0.000894617 1 
676 1 198.301 27.9984 -9.97605 0.000791038 1 
677 1 196.041 26.4839 -10.8502 0.000249378 1 
678 1 196.274 29.2488 -11.5694 0.000222535 1 
679 1 195.724 28.5176 -8.854 0.00216644 1 
680 1 195.96 31.2851 -9.56454 0.000964861 1 
681 1 193.698 29.7667 -10.4484 0.000902033 1 
682 1 193.935 32.5295 -11.1606 0.000555479 1 
683 1 193.393 31.8049 -8.44023 0.0028937 1 
684 1 193.63 34.5644 -9.14928 0.00279377 1 
685 1 191.361 33.0493 -10.0455 0.00207314 1 
686 1 191.597 35.8013 -10.7617 0.00100923 1 
687 1 191.062 35.0831 -8.03809 0.00923835 1 
688 1 191.293 37.827 -8.77124 0.00730748 1 
689 1 189.016 36.3147 -9.64026 0.00282123 1 
690 1 294.084 39.0689 -10.3812 0.00147702 1 
691 1 188.721 38.3391 -7.67146 0.0152187 1 
692 1 293.775 41.0995 -8.41901 0.0207251 1 
693 1 291.5 39.5882 -9.25213 0.00119839 1 
694 1 291.729 42.3465 -9.99904 0.00391123 1 
695 1 291.203 41.6306 -7.26701 0.0566377 1 
696 1 291.401 44.3987 -8.06022 0.0225313 1 
697 1 289.142 42.8515 -8.86839 0.00717586 1 
698 1 289.366 45.6269 -9.62304 0.00372252 1 
699 1 288.808 44.8842 -6.93704 0.0332582 1 
700 1 289.048 47.6546 -7.65825 0.0200934 1 
701 1 286.775 46.1376 -8.48143 0.00515856 1 
702 1 286.471 48.1739 -6.49685 0.0936279 1 
703 1 104.817 1.32331 -11.9092 0.000845751 1 
704 1 104.501 3.37208 -9.93546 0.0078047 1 
705 1 104.746 6.13236 -10.6251 0.00241924 1 
706 1 102.47 4.60888 -11.4963 0.00207496 1 
707 1 102.715 7.36749 -12.2029 0.0006368 1 
708 1 102.159 6.65353 -9.4952 0.00392123 1 
709 1 102.411 9.39794 -10.196 0.00107217 1 
710 1 100.133 7.88191 -11.073 0.000714875 1 
711 1 100.378 10.6333 -11.7846 0.000341129 1 
712 1 99.8306 9.90815 -9.06361 0.00133855 1 
713 1 100.078 12.6546 -9.78552 0.00108816 1 
714 1 97.7987 11.143 -10.6525 0.00105801 1 
715 1 98.0385 13.8996 -11.373 0.000258427 1 
716 1 97.5002 13.1631 -8.65386 0.00244757 1 
717 1 97.7343 15.9243 -9.37419 0.00101672 1 
718 1 95.4617 14.411 -10.2482 0.000329797 1 
719 1 95.6922 17.1712 -10.9593 0.000231921 1 
720 1 95.1594 16.4314 -8.24254 0.00125486 1 
721 1 95.3862 19.1905 -8.9523 0.00158111 1 
722 1 93.1162 17.6811 -9.83293 0.000540665 1 
723 1 198.173 20.443 -10.5431 0.000684677 1 
724 1 197.646 19.6951 -7.82393 0.0100295 1 
725 1 197.857 22.4713 -8.54439 0.00245062 1 
726 1 195.593 20.9562 -9.42807 0.00244224 1 
727 1 195.812 23.7207 -10.1362 0.000632747 1 
728 1 195.264 22.9863 -7.43438 0.0061582 1 
729 1 195.49 25.744 -8.13737 0.00264607 1 
730 1 193.22 24.2361 -9.01038 0.00119779 1 
731 1 193.459 26.9981 -9.7281 0.00119145 1 
732 1 192.897 26.2576 -7.00889 0.0233441 1 
733 1 193.145 29.0394 -7.74334 0.0136663 1 
734 1 190.876 27.5152 -8.62939 0.00813226 1 
735 1 191.118 30.2877 -9.3434 0.00427995 1 
736 1 190.558 29.5641 -6.66907 0.0502122 1 
737 1 190.826 32.3233 -7.35152 0.0133924 1 
738 1 188.523 30.8074 -8.22086 0.00525533 1 
739 1 188.776 33.568 -8.93036 0.00689477 1 
740 1 188.233 32.8451 -6.26167 0.0692887 1 