ITEM: TIMESTEP
0
ITEM: NUMBER OF ATOMS
2718
ITEM: BOX BOUNDS xy xz yz pp pp ss
0.0000000000000000e+00 5.1548084347999996e+01 8.5913473909999993e+00
0.0000000000000000e+00 3.5423032761000002e+01 0.0000000000000000e+00
-9.6335497856490008e+01 1.0186251744208289e+02 0.0000000000000000e+00
ITEM: ATOMS id type x y z c_csym c_cna 
5821 1 41.4054 35.2167 -14.7876 1.67831e-05 1 
6244 1 42.2652 33.6244 -10.1666 0.000530317 1 
6245 1 37.1073 34.8698 -12.3342 8.09036e-05 1 
6246 1 39.6864 34.2463 -11.2527 0.000201159 1 
6247 1 39.1135 33.6891 -14.0031 1.91815e-05 1 
6248 1 41.6919 33.0648 -12.92 5.2035e-05 1 
6249 1 39.4001 31.537 -12.1386 6.72287e-05 1 
6250 1 41.9797 30.9125 -11.055 0.000163101 1 
6251 1 41.4054 30.3555 -13.8054 1.98378e-05 1 
6252 1 41.6934 28.2011 -11.9395 0.000117266 1 
6253 1 25.9385 0.0718108 -13.413 4.34582e-05 1 
6256 1 34.2432 32.7869 -14.2971 3.18012e-05 1 
6257 1 36.8207 32.1616 -13.219 5.15032e-05 1 
6259 1 38.827 30.9803 -14.8874 9.24212e-06 1 
6260 1 36.5353 29.4522 -14.1031 2.22296e-05 1 
6261 1 39.1145 28.8267 -13.0226 3.42183e-05 1 
6263 1 41.1189 27.6459 -14.6897 1.60611e-05 1 
6264 1 38.8284 26.1172 -13.9051 3.10835e-05 1 
6265 1 41.4065 25.4921 -12.8212 0.000112305 1 
6267 1 41.1189 22.7846 -13.7039 7.45544e-05 1 
6277 1 36.2496 26.7428 -14.9865 1.19987e-05 1 
6281 1 38.5416 23.409 -14.7876 1.67831e-05 1 
6285 1 40.8319 20.0763 -14.5892 3.32983e-05 1 
6669 1 40.8164 35.385 -5.72322 0.0345728 1 
6670 1 40.2575 34.8082 -8.49804 0.00267737 1 
6671 1 40.5476 32.6673 -6.64874 0.00457408 1 
6672 1 42.5559 31.4737 -8.30741 0.00197155 1 
6673 1 29.0873 0.00275358 -9.58247 0.00122708 1 
6674 1 35.3774 33.8984 -8.79687 0.0024161 1 
6675 1 37.9556 33.2809 -7.73208 0.00454963 1 
6676 1 37.3909 32.719 -10.4724 0.00043285 1 
6677 1 39.9731 32.0973 -9.39193 0.000492027 1 
6678 1 37.6792 30.5666 -8.61592 0.00127751 1 
6679 1 40.2672 29.9436 -7.53732 0.0015654 1 
6680 1 39.6893 29.3831 -10.2764 0.000255716 1 
6681 1 42.2702 28.7553 -9.1911 0.00111327 1 
6682 1 39.9837 27.2257 -8.41026 0.00242306 1 
6683 1 42.5643 26.5934 -7.30794 0.00689739 1 
6684 1 41.9827 26.0458 -10.0673 0.000901348 1 
6685 1 42.2673 23.8994 -8.17749 0.00486185 1 
6686 1 30.2377 35.1489 -10.9467 0.000587163 1 
6687 1 32.8084 34.5257 -9.86334 0.00135574 1 
6688 1 32.2388 33.9684 -12.6224 0.000138127 1 
6689 1 34.8131 33.3431 -11.5469 0.000270135 1 
6690 1 32.5226 31.8174 -10.757 0.00038653 1 
6691 1 35.0978 31.1899 -9.68595 0.000648302 1 
6692 1 34.5287 30.6339 -12.4329 9.13735e-05 1 
6693 1 37.1076 30.008 -11.3567 0.000151216 1 
6694 1 34.816 28.4772 -10.5727 0.000311931 1 
6695 1 37.3985 27.8503 -9.49713 0.000943695 1 
6696 1 36.8231 27.2974 -12.2392 9.47001e-05 1 
6697 1 39.4039 26.6719 -11.1563 0.000259613 1 
6698 1 37.1114 25.1434 -10.3717 0.000435533 1 
6699 1 39.692 24.5226 -9.28105 0.00113802 1 
6700 1 39.116 23.9648 -12.0359 0.000124794 1 
6701 1 41.6928 23.3413 -10.9467 0.000587163 1 
6702 1 39.4015 21.8167 -10.1666 0.000530317 1 
6703 1 41.9763 21.1945 -9.07307 0.00237394 1 
6704 1 41.4048 20.6336 -11.8346 0.000277688 1 
6705 1 41.693 18.4816 -9.96619 0.00195879 1 
6706 1 27.0865 35.2167 -14.7876 1.67831e-05 1 
6707 1 29.6638 34.5923 -13.7039 7.45544e-05 1 
6708 1 27.373 33.0648 -12.92 5.2035e-05 1 
6709 1 29.9497 32.4413 -11.8346 0.000277688 1 
6710 1 29.3767 31.884 -14.5892 3.32983e-05 1 
6711 1 31.9525 31.2596 -13.5095 4.77934e-05 1 
6712 1 29.6635 29.7313 -12.7224 0.000141288 1 
6713 1 32.2384 29.1056 -11.646 0.00022012 1 
6714 1 31.6667 28.5498 -14.3954 2.06597e-05 1 
6715 1 34.2439 27.9237 -13.3177 4.17365e-05 1 
6716 1 31.9529 26.395 -12.5305 9.7657e-05 1 
6717 1 34.5309 25.7681 -11.4531 0.000190143 1 
6718 1 33.958 25.2147 -14.2007 2.06748e-05 1 
6719 1 36.5368 24.5891 -13.1203 4.63266e-05 1 
6720 1 34.2435 23.0621 -12.3342 8.09036e-05 1 
6721 1 36.8226 22.4386 -11.2527 0.000201159 1 
6722 1 36.2497 21.8815 -14.0031 1.91815e-05 1 
6723 1 38.8282 21.2572 -12.92 5.2035e-05 1 
6724 1 36.5363 19.7293 -12.1386 6.72287e-05 1 
6725 1 39.116 19.1048 -11.055 0.000163101 1 
6726 1 38.5416 18.5478 -13.8054 1.98378e-05 1 
6727 1 41.1187 17.9236 -12.7224 0.000141288 1 
6728 1 38.8296 16.3935 -11.9395 0.000117266 1 
6729 1 41.4057 15.7676 -10.858 0.000479611 1 
6730 1 40.832 15.2133 -13.6085 4.301e-05 1 
6731 1 41.118 13.0594 -11.7389 0.000188362 1 
6733 1 24.7946 33.6891 -14.0031 1.91815e-05 1 
6736 1 24.5081 30.9803 -14.8874 9.24212e-06 1 
6737 1 27.0865 30.3555 -13.8054 1.98378e-05 1 
6740 1 26.8 27.6459 -14.6897 1.60611e-05 1 
6741 1 29.3769 27.021 -13.6085 4.301e-05 1 
6744 1 29.09 24.3123 -14.4918 2.24094e-05 1 
6745 1 31.6661 23.6872 -13.413 4.34582e-05 1 
6748 1 31.3794 20.9792 -14.2971 3.18012e-05 1 
6749 1 33.9569 20.354 -13.219 5.15032e-05 1 
6751 1 35.9632 19.1726 -14.8874 9.24212e-06 1 
6752 1 33.6715 17.6445 -14.1031 2.22296e-05 1 
6753 1 36.2507 17.019 -13.0226 3.42183e-05 1 
6755 1 38.2551 15.8382 -14.6897 1.60611e-05 1 
6756 1 35.9646 14.3096 -13.9051 3.10835e-05 1 
6757 1 38.5427 13.6844 -12.8212 0.000112305 1 
6759 1 40.5452 12.5046 -14.4918 2.24094e-05 1 
6760 1 38.2552 10.9769 -13.7039 7.45544e-05 1 
6761 1 40.8302 10.3531 -12.6224 0.000138127 1 
6763 1 40.5438 7.64429 -13.5095 4.77934e-05 1 
6789 1 33.3858 14.9351 -14.9865 1.19987e-05 1 
6793 1 35.6778 11.6013 -14.7876 1.67831e-05 1 
6797 1 37.9681 8.26861 -14.5892 3.32983e-05 1 
6801 1 40.258 4.93448 -14.3954 2.06597e-05 1 
6805 1 42.5493 1.59934 -14.2007 2.06748e-05 1 
7096 1 41.5316 33.733 -1.00457 9.02617 5 
7097 1 36.4307 34.949 -3.33024 0.772971 1 
7098 1 39.1689 34.4153 -2.35559 5.33393 5 
7099 1 38.5154 33.8527 -5.01532 0.078752 1 
7100 1 41.1395 33.2582 -3.90664 0.114359 1 
7101 1 38.8817 31.6968 -3.19984 1.37632 5 
7102 1 41.4853 31.1818 -2.10854 3.23658 5 
7103 1 40.8596 30.513 -4.81263 0.0194587 1 
7104 1 41.1848 28.3537 -2.9519 0.208856 1 
7105 1 33.3706 35.0798 -7.0871 0.0165912 1 
7106 1 35.9236 34.4501 -6.04964 0.0285349 1 
7107 1 33.6244 32.9287 -5.24604 0.101306 1 
7108 1 36.224 32.314 -4.20301 0.256315 1 
7109 1 35.6603 31.746 -6.94107 0.00697536 1 
7110 1 38.253 31.1352 -5.888 0.0123348 1 
7111 1 35.9837 29.5653 -5.1264 0.0374677 1 
7112 1 38.5719 28.9663 -4.08507 0.0830359 1 
7113 1 37.9795 28.402 -6.77084 0.0103777 1 
7114 1 40.573 27.7813 -5.6722 0.0165766 1 
7115 1 38.2566 26.2524 -4.87487 0.0457247 1 
7116 1 40.859 25.6666 -3.73336 0.0738879 1 
7117 1 40.2713 25.0868 -6.51599 0.00940008 1 
7118 1 40.5414 22.9839 -4.64805 0.0445457 1 
7119 1 42.5414 21.7599 -6.2956 0.0251905 1 
7120 1 28.5149 34.1965 -7.40926 0.0053554 1 
7121 1 31.0863 33.5676 -6.2956 0.0251905 1 
7122 1 30.5211 33.0022 -9.07307 0.00237394 1 
7123 1 33.0874 32.3764 -8.00328 0.00420592 1 
7124 1 30.8152 30.8542 -7.19717 0.0305019 1 
7125 1 33.378 30.2059 -6.17343 0.0379221 1 
7126 1 32.8084 29.6597 -8.90069 0.00275126 1 
7127 1 35.3902 29.0255 -7.8373 0.00305534 1 
7128 1 33.1022 27.4814 -7.05309 0.0130067 1 
7129 1 35.6896 26.8533 -5.96296 0.0309501 1 
7130 1 35.1061 26.3165 -8.70839 0.00224827 1 
7131 1 37.6885 25.6959 -7.62276 0.00479169 1 
7132 1 35.3838 24.1801 -6.81807 0.0235481 1 
7133 1 37.9527 23.5774 -5.72322 0.0345728 1 
7134 1 37.3937 23.0006 -8.49804 0.00267737 1 
7135 1 39.97 22.3888 -7.40926 0.0053554 1 
7136 1 37.6838 20.8597 -6.64874 0.00457408 1 
7137 1 40.2669 20.2472 -5.57058 0.0286358 1 
7138 1 39.6921 19.666 -8.30741 0.00197154 1 
7139 1 42.2703 19.0465 -7.19717 0.0305019 1 
7140 1 39.9892 17.5012 -6.45478 0.0110106 1 
7141 1 42.5706 16.8527 -5.39179 0.0851119 1 
7142 1 41.9814 16.3162 -8.11136 0.00649133 1 
7143 1 42.2636 14.1411 -6.2159 0.01563 1 
7144 1 14.7684 0.00275358 -9.58247 0.00122708 1 
7145 1 25.9385 34.8082 -8.49804 0.00267737 1 
7146 1 25.3675 34.2463 -11.2527 0.000201159 1 
7147 1 27.9463 33.6244 -10.1666 0.000530317 1 
7148 1 25.6542 32.0973 -9.39193 0.000492027 1 
7149 1 28.237 31.4737 -8.30741 0.00197154 1 
7150 1 27.6608 30.9125 -11.055 0.000163101 1 
7151 1 30.2379 30.2893 -9.96619 0.00195879 1 
7152 1 27.9513 28.7553 -9.1911 0.00111327 1 
7153 1 30.5263 28.1238 -8.11136 0.00649133 1 
7154 1 29.9505 27.5753 -10.858 0.000479611 1 
7155 1 32.5253 26.9454 -9.78497 0.00115765 1 
7156 1 30.2357 25.4177 -8.98228 0.00181689 1 
7157 1 32.8047 24.7869 -7.91151 0.00503797 1 
7158 1 32.237 24.2406 -10.6626 0.000440176 1 
7159 1 34.8149 23.6181 -9.58247 0.00122708 1 
7160 1 32.5136 22.0907 -8.79687 0.0024161 1 
7161 1 35.0918 21.4732 -7.73208 0.00454963 1 
7162 1 34.5271 20.9114 -10.4724 0.00043285 1 
7163 1 37.1093 20.2896 -9.39193 0.000492027 1 
7164 1 34.8154 18.7589 -8.61592 0.00127751 1 
7165 1 37.4035 18.1359 -7.53732 0.0015654 1 
7166 1 36.8255 17.5754 -10.2764 0.000255716 1 
7167 1 39.4064 16.9476 -9.1911 0.00111327 1 
7168 1 37.12 15.418 -8.41026 0.00242306 1 
7169 1 39.7005 14.7857 -7.30794 0.00689739 1 
7170 1 39.1189 14.2381 -10.0673 0.000901348 1 
7171 1 41.6909 13.61 -8.98228 0.00181689 1 
7172 1 39.4035 12.0917 -8.17749 0.00486185 1 
7173 1 41.9619 11.4645 -7.0871 0.0165912 1 
7174 1 41.3997 10.9103 -9.86334 0.00135574 1 
7175 1 41.6788 8.76108 -8.00328 0.00420592 1 
7176 1 11.6196 0.0718108 -13.413 4.34582e-05 1 
7177 1 22.7884 34.8698 -12.3342 8.09036e-05 1 
7178 1 20.4942 33.3431 -11.5469 0.000270135 1 
7179 1 23.0719 32.719 -10.4724 0.00043285 1 
7180 1 22.5018 32.1616 -13.219 5.15032e-05 1 
7181 1 25.0812 31.537 -12.1386 6.72287e-05 1 
7182 1 22.7887 30.008 -11.3567 0.000151216 1 
7183 1 25.3704 29.3831 -10.2764 0.000255716 1 
7184 1 24.7956 28.8267 -13.0226 3.42183e-05 1 
7185 1 27.3745 28.2011 -11.9395 0.000117266 1 
7186 1 25.085 26.6719 -11.1563 0.000259613 1 
7187 1 27.6637 26.0458 -10.0673 0.000901348 1 
7188 1 27.0876 25.4921 -12.8212 0.000112305 1 
7189 1 29.6629 24.8671 -11.7389 0.000188362 1 
7190 1 27.3739 23.3413 -10.9467 0.000587163 1 
7191 1 29.9446 22.718 -9.86334 0.00135574 1 
7192 1 29.375 22.1607 -12.6224 0.000138127 1 
7193 1 31.9493 21.5354 -11.5469 0.000270135 1 
7194 1 29.6589 20.0097 -10.757 0.00038653 1 
7195 1 32.234 19.3823 -9.68595 0.000648302 1 
7196 1 31.6649 18.8262 -12.4329 9.13735e-05 1 
7197 1 34.2438 18.2003 -11.3567 0.000151216 1 
7198 1 31.9522 16.6695 -10.5727 0.000311931 1 
7199 1 34.5347 16.0426 -9.49713 0.000943695 1 
7200 1 33.9593 15.4897 -12.2392 9.47001e-05 1 
7201 1 36.5401 14.8642 -11.1563 0.000259613 1 
7202 1 34.2476 13.3357 -10.3717 0.000435533 1 
7203 1 36.8283 12.7149 -9.28105 0.00113802 1 
7204 1 36.2522 12.1571 -12.0359 0.000124794 1 
7205 1 38.829 11.5336 -10.9467 0.000587163 1 
7206 1 36.5377 10.0091 -10.1666 0.000530317 1 
7207 1 39.1125 9.3868 -9.07307 0.00237394 1 
7208 1 38.5411 8.82595 -11.8346 0.000277688 1 
7209 1 41.114 8.20203 -10.757 0.00038653 1 
7210 1 38.8293 6.6739 -9.96619 0.00195879 1 
7211 1 41.3997 6.04435 -8.90069 0.00275126 1 
7212 1 40.8297 5.49024 -11.646 0.00022012 1 
7213 1 41.1167 3.33 -9.78497 0.00115765 1 
7214 1 15.3449 34.5923 -13.7039 7.45544e-05 1 
7215 1 17.9199 33.9684 -12.6224 0.000138127 1 
7217 1 19.9243 32.7869 -14.2971 3.18012e-05 1 
7218 1 17.6336 31.2596 -13.5095 4.77934e-05 1 
7219 1 20.2098 30.6339 -12.4329 9.13735e-05 1 
7221 1 22.2164 29.4522 -14.1031 2.22296e-05 1 
7222 1 19.9249 27.9237 -13.3177 4.17365e-05 1 
7223 1 22.5042 27.2974 -12.2392 9.47001e-05 1 
7224 1 21.9307 26.7428 -14.9865 1.19987e-05 1 
7225 1 24.5095 26.1172 -13.9051 3.10835e-05 1 
7226 1 22.2179 24.5891 -13.1203 4.63266e-05 1 
7227 1 24.7971 23.9648 -12.0359 0.000124794 1 
7228 1 24.2227 23.409 -14.7876 1.67831e-05 1 
7229 1 26.8 22.7846 -13.7039 7.45544e-05 1 
7230 1 24.5093 21.2572 -12.92 5.2035e-05 1 
7231 1 27.0859 20.6336 -11.8346 0.000277688 1 
7232 1 26.5129 20.0763 -14.5892 3.32983e-05 1 
7233 1 29.0887 19.452 -13.5095 4.77934e-05 1 
7234 1 26.7998 17.9236 -12.7224 0.000141288 1 
7235 1 29.3746 17.2979 -11.646 0.00022012 1 
7236 1 28.8029 16.7422 -14.3954 2.06597e-05 1 
7237 1 31.3801 16.1161 -13.3177 4.17365e-05 1 
7238 1 29.0891 14.5873 -12.5305 9.76571e-05 1 
7239 1 31.6672 13.9604 -11.4531 0.000190143 1 
7240 1 31.0942 13.407 -14.2007 2.06748e-05 1 
7241 1 33.673 12.7815 -13.1203 4.63266e-05 1 
7242 1 31.3798 11.2544 -12.3342 8.09036e-05 1 
7243 1 33.9588 10.6309 -11.2527 0.000201159 1 
7244 1 33.3859 10.0738 -14.0031 1.91815e-05 1 
7245 1 35.9644 9.44949 -12.92 5.2035e-05 1 
7246 1 33.6725 7.92165 -12.1386 6.72287e-05 1 
7247 1 36.2522 7.29712 -11.055 0.000163101 1 
7248 1 35.6778 6.7401 -13.8054 1.98378e-05 1 
7249 1 38.2549 6.11594 -12.7224 0.000141288 1 
7250 1 35.9658 4.58578 -11.9395 0.000117266 1 
7251 1 38.5419 3.95997 -10.858 0.00047961 1 
7252 1 37.9682 3.40562 -13.6085 4.301e-05 1 
7253 1 40.5443 2.77967 -12.5305 9.76571e-05 1 
7254 1 38.2542 1.25171 -11.7389 0.000188362 1 
7255 1 40.8283 0.625287 -10.6626 0.000440176 1 
7256 1 12.7675 35.2167 -14.7876 1.67831e-05 1 
7260 1 15.0578 31.884 -14.5892 3.32983e-05 1 
7264 1 17.3477 28.5498 -14.3954 2.06597e-05 1 
7268 1 19.6391 25.2147 -14.2007 2.06748e-05 1 
7272 1 21.9308 21.8815 -14.0031 1.91815e-05 1 
7275 1 21.6443 19.1726 -14.8874 9.24212e-06 1 
7276 1 24.2227 18.5478 -13.8054 1.98378e-05 1 
7279 1 23.9362 15.8382 -14.6897 1.60611e-05 1 
7280 1 26.5131 15.2133 -13.6085 4.301e-05 1 
7283 1 26.2262 12.5046 -14.4918 2.24094e-05 1 
7284 1 28.8023 11.8795 -13.413 4.34582e-05 1 
7287 1 28.5156 9.17154 -14.2971 3.18012e-05 1 
7288 1 31.0932 8.54628 -13.219 5.15032e-05 1 
7290 1 33.0995 7.36496 -14.8874 9.24212e-06 1 
7291 1 30.8077 5.83681 -14.1031 2.22296e-05 1 
7292 1 33.3869 5.2113 -13.0226 3.42183e-05 1 
7294 1 35.3913 4.03053 -14.6897 1.60611e-05 1 
7295 1 33.1009 2.50187 -13.9051 3.10835e-05 1 
7296 1 35.6789 1.8767 -12.8212 0.000112305 1 
7298 1 37.6814 0.696946 -14.4918 2.24094e-05 1 
7337 1 30.522 3.12744 -14.9865 1.19987e-05 1 
7519 1 37.1458 32.7389 -1.40274 6.59484 5 
7520 1 39.1031 29.6168 -1.42603 8.08189 5 
7521 1 41.7869 29.1673 -0.403473 5.00966 5 
7522 1 41.6039 26.2781 -0.871062 2.02602 5 
7523 1 29.6603 35.3501 -1.85323 7.59319 5 
7524 1 31.2058 33.2574 -0.667514 10.9161 5 
7525 1 31.6586 34.1035 -3.45281 4.81679 5 
7526 1 34.1412 33.3153 -2.43512 5.60202 5 
7527 1 32.7977 31.0443 -1.16088 11.1808 5 
7528 1 34.0138 30.7184 -3.51836 3.4556 5 
7529 1 36.5706 30.1669 -2.46806 4.96541 5 
7530 1 34.2716 28.6582 -1.52191 5.81909 2 
7531 1 36.2681 27.4119 -3.20056 0.184898 1 
7532 1 38.8707 26.9177 -2.17452 0.348257 1 
7533 1 38.5586 24.1765 -2.93826 0.289557 1 
7534 1 41.1155 23.5424 -1.85323 7.59319 5 
7535 1 38.6678 21.9253 -1.00457 9.02617 5 
7536 1 40.8072 20.8895 -2.82302 5.44164 5 
7537 1 41.4899 18.7483 -1.30909 8.00608 5 
7538 1 26.4975 35.385 -5.72322 0.0345728 1 
7539 1 29.0863 34.7916 -4.64805 0.0445457 1 
7540 1 26.8206 33.2582 -3.90664 0.114359 1 
7541 1 29.3521 32.6972 -2.82302 5.44164 5 
7542 1 28.8117 32.0549 -5.57058 0.0286358 1 
7543 1 31.3866 31.3909 -4.37804 6.00058 5 
7544 1 29.1162 29.8765 -3.76825 0.336249 5 
7545 1 31.7779 29.0745 -2.71594 6.30181 5 
7546 1 31.1154 28.6604 -5.39179 0.0851119 1 
7547 1 33.7166 28.0065 -4.35341 0.177158 1 
7548 1 31.3758 26.4713 -3.46413 0.208785 1 
7549 1 33.8963 26.0185 -2.40072 0.873738 1 
7550 1 33.3623 25.3191 -5.15677 0.0773757 1 
7551 1 35.9143 24.7559 -3.98358 0.405009 1 
7552 1 33.5669 23.1413 -3.33024 0.772971 1 
7553 1 36.3051 22.6076 -2.35559 5.33393 5 
7554 1 35.6516 22.045 -5.01532 0.078752 1 
7555 1 38.2758 21.4505 -3.90664 0.114359 1 
7556 1 36.018 19.8891 -3.19984 1.37632 5 
7557 1 38.6216 19.3741 -2.10854 3.23658 5 
7558 1 37.9959 18.7054 -4.81263 0.0194587 1 
7559 1 40.5713 18.0688 -3.76825 0.336249 5 
7560 1 38.3211 16.546 -2.9519 0.208856 1 
7561 1 40.9409 15.9516 -1.80715 0.747081 1 
7562 1 40.2928 15.3272 -4.54651 0.0503701 1 
7563 1 40.5505 13.208 -2.52552 2.76504 5 
7564 1 42.4989 11.9847 -4.25101 0.165734 1 
7565 1 21.6047 34.4501 -6.04964 0.0285349 1 
7566 1 24.1965 33.8527 -5.01532 0.078752 1 
7567 1 23.6367 33.2809 -7.73208 0.00454963 1 
7568 1 26.2287 32.6673 -6.64874 0.00457408 1 
7569 1 23.9341 31.1352 -5.888 0.0123348 1 
7570 1 26.5407 30.513 -4.81263 0.0194587 1 
7571 1 25.9483 29.9436 -7.53732 0.0015654 1 
7572 1 28.5341 29.3089 -6.45478 0.0110106 1 
7573 1 26.2541 27.7813 -5.6722 0.0165766 1 
7574 1 28.8377 27.1349 -4.54651 0.0503701 1 
7575 1 28.2454 26.5934 -7.30794 0.00689739 1 
7576 1 30.8085 25.9488 -6.2159 0.01563 1 
7577 1 28.527 24.4478 -5.37508 0.0371413 1 
7578 1 31.0438 23.7924 -4.25101 0.165734 1 
7579 1 30.5068 23.2722 -7.0871 0.0165912 1 
7580 1 33.0598 22.6424 -6.04964 0.0285349 1 
7581 1 30.7606 21.121 -5.24604 0.101306 1 
7582 1 33.3602 20.5063 -4.20301 0.256315 1 
7583 1 32.7965 19.9384 -6.94107 0.00697536 1 
7584 1 35.3892 19.3275 -5.888 0.0123348 1 
7585 1 33.1199 17.7576 -5.1264 0.0374677 1 
7586 1 35.7081 17.1586 -4.08507 0.0830359 1 
7587 1 35.1157 16.5943 -6.77084 0.0103777 1 
7588 1 37.7093 15.9736 -5.6722 0.0165766 1 
7589 1 35.3928 14.4447 -4.87487 0.0457247 1 
7590 1 37.9953 13.8589 -3.73336 0.0738879 1 
7591 1 37.4075 13.2791 -6.51599 0.00940008 1 
7592 1 39.9821 12.6402 -5.37508 0.0371413 1 
7593 1 37.6777 11.1762 -4.64805 0.0445457 1 
7594 1 40.2499 10.4882 -3.45281 4.81679 5 
7595 1 39.6776 9.95227 -6.2956 0.0251905 1 
7596 1 42.2157 9.31333 -5.24604 0.101306 1 
7597 1 39.978 7.77557 -4.37804 6.00058 5 
7598 1 42.6052 7.10304 -3.51836 3.4556 5 
7599 1 41.9693 6.59051 -6.17343 0.0379221 1 
7600 1 42.308 4.39115 -4.35341 0.177158 1 
7601 1 19.0517 35.0798 -7.0871 0.0165912 1 
7602 1 18.4895 34.5257 -9.86334 0.00135574 1 
7603 1 21.0585 33.8984 -8.79687 0.0024161 1 
7604 1 18.7685 32.3764 -8.00328 0.00420592 1 
7605 1 21.3414 31.746 -6.94107 0.00697536 1 
7606 1 20.7789 31.1899 -9.68595 0.000648302 1 
7607 1 23.3603 30.5666 -8.61592 0.00127751 1 
7608 1 21.0712 29.0255 -7.8373 0.00305534 1 
7609 1 23.6606 28.402 -6.77084 0.0103777 1 
7610 1 23.0796 27.8503 -9.49713 0.000943695 1 
7611 1 25.6648 27.2257 -8.41026 0.00242306 1 
7612 1 23.3696 25.6959 -7.62276 0.00479169 1 
7613 1 25.9524 25.0868 -6.51599 0.00940008 1 
7614 1 25.3731 24.5226 -9.28105 0.00113802 1 
7615 1 27.9484 23.8994 -8.17749 0.00486185 1 
7616 1 25.6511 22.3888 -7.40926 0.0053554 1 
7617 1 28.2225 21.7599 -6.2956 0.0251905 1 
7618 1 27.6574 21.1945 -9.07307 0.00237394 1 
7619 1 30.2237 20.5688 -8.00328 0.00420592 1 
7620 1 27.9514 19.0465 -7.19717 0.0305019 1 
7621 1 30.5142 18.3982 -6.17343 0.0379221 1 
7622 1 29.9446 17.852 -8.90069 0.00275126 1 
7623 1 32.5264 17.2179 -7.8373 0.00305534 1 
7624 1 30.2384 15.6737 -7.05309 0.0130067 1 
7625 1 32.8258 15.0456 -5.96296 0.0309501 1 
7626 1 32.2423 14.5088 -8.70839 0.00224827 1 
7627 1 34.8247 13.8882 -7.62276 0.00479169 1 
7628 1 32.52 12.3724 -6.81807 0.0235481 1 
7629 1 35.0889 11.7697 -5.72322 0.0345728 1 
7630 1 34.5299 11.1929 -8.49804 0.00267737 1 
7631 1 37.1063 10.5811 -7.40926 0.0053554 1 
7632 1 34.8201 9.05198 -6.64874 0.00457408 1 
7633 1 37.4031 8.43953 -5.57058 0.0286358 1 
7634 1 36.8283 7.8583 -8.30741 0.00197155 1 
7635 1 39.4065 7.23883 -7.19717 0.0305019 1 
7636 1 37.1254 5.69351 -6.45478 0.0110106 1 
7637 1 39.7068 5.04502 -5.39179 0.0851118 1 
7638 1 39.1176 4.50848 -8.11136 0.00649133 1 
7639 1 41.6936 3.86604 -7.05309 0.0130067 1 
7640 1 39.3998 2.33342 -6.2159 0.01563 1 
7641 1 41.9537 1.70373 -5.15677 0.0773757 1 
7642 1 41.3961 1.17151 -7.91151 0.00503797 1 
7643 1 15.9188 35.1489 -10.9467 0.000587163 1 
7644 1 13.6274 33.6244 -10.1666 0.000530317 1 
7645 1 16.2022 33.0022 -9.07307 0.00237394 1 
7646 1 15.6308 32.4413 -11.8346 0.000277688 1 
7647 1 18.2037 31.8174 -10.757 0.00038653 1 
7648 1 15.919 30.2893 -9.96619 0.00195879 1 
7649 1 18.4895 29.6597 -8.90069 0.00275126 1 
7650 1 17.9195 29.1056 -11.646 0.00022012 1 
7651 1 20.4971 28.4772 -10.5727 0.000311931 1 
7652 1 18.2064 26.9454 -9.78497 0.00115765 1 
7653 1 20.7872 26.3165 -8.70839 0.00224827 1 
7654 1 20.212 25.7681 -11.4531 0.000190143 1 
7655 1 22.7925 25.1434 -10.3717 0.000435533 1 
7656 1 20.4959 23.6181 -9.58247 0.00122708 1 
7657 1 23.0748 23.0006 -8.49804 0.00267737 1 
7658 1 22.5037 22.4386 -11.2527 0.000201159 1 
7659 1 25.0825 21.8167 -10.1666 0.000530317 1 
7660 1 22.7904 20.2896 -9.39193 0.000492027 1 
7661 1 25.3732 19.666 -8.30741 0.00197155 1 
7662 1 24.7971 19.1048 -11.055 0.000163101 1 
7663 1 27.3741 18.4816 -9.96619 0.00195879 1 
7664 1 25.0875 16.9476 -9.1911 0.00111327 1 
7665 1 27.6625 16.3162 -8.11136 0.00649133 1 
7666 1 27.0868 15.7676 -10.858 0.00047961 1 
7667 1 29.6616 15.1377 -9.78497 0.00115765 1 
7668 1 27.372 13.61 -8.98228 0.00181689 1 
7669 1 29.9409 12.9792 -7.91151 0.00503797 1 
7670 1 29.3732 12.433 -10.6626 0.000440177 1 
7671 1 31.9511 11.8104 -9.58247 0.00122708 1 
7672 1 29.6498 10.2831 -8.79687 0.0024161 1 
7673 1 32.228 9.66554 -7.73208 0.00454963 1 
7674 1 31.6633 9.10368 -10.4724 0.00043285 1 
7675 1 34.2455 8.48193 -9.39193 0.000492027 1 
7676 1 31.9516 6.95123 -8.61592 0.00127751 1 
7677 1 34.5397 6.32821 -7.53732 0.0015654 1 
7678 1 33.9617 5.7677 -10.2764 0.000255716 1 
7679 1 36.5426 5.13993 -9.1911 0.00111327 1 
7680 1 34.2562 3.61031 -8.41026 0.00242306 1 
7681 1 36.8367 2.978 -7.30794 0.00689739 1 
7682 1 36.2551 2.43047 -10.0673 0.000901348 1 
7683 1 38.8271 1.80233 -8.98228 0.00181689 1 
7684 1 36.5397 0.284022 -8.17749 0.00486185 1 
7685 1 8.4695 34.8698 -12.3342 8.09036e-05 1 
7686 1 11.0485 34.2463 -11.2527 0.000201159 1 
7687 1 10.4757 33.6891 -14.0031 1.91815e-05 1 
7688 1 13.0541 33.0648 -12.92 5.2035e-05 1 
7689 1 10.7623 31.537 -12.1386 6.72287e-05 1 
7690 1 13.3419 30.9125 -11.055 0.000163101 1 
7691 1 12.7675 30.3555 -13.8054 1.98378e-05 1 
7692 1 15.3446 29.7313 -12.7224 0.000141288 1 
7693 1 13.0555 28.2011 -11.9395 0.000117266 1 
7694 1 15.6316 27.5753 -10.858 0.00047961 1 
7695 1 15.058 27.021 -13.6085 4.301e-05 1 
7696 1 17.634 26.395 -12.5305 9.76571e-05 1 
7697 1 15.344 24.8671 -11.7389 0.000188362 1 
7698 1 17.9181 24.2406 -10.6626 0.000440177 1 
7699 1 17.3472 23.6872 -13.413 4.34582e-05 1 
7700 1 19.9246 23.0621 -12.3342 8.09036e-05 1 
7701 1 17.6304 21.5354 -11.5469 0.000270135 1 
7702 1 20.2082 20.9114 -10.4724 0.00043285 1 
7703 1 19.638 20.354 -13.219 5.15032e-05 1 
7704 1 22.2174 19.7293 -12.1386 6.72287e-05 1 
7705 1 19.9249 18.2003 -11.3567 0.000151216 1 
7706 1 22.5066 17.5754 -10.2764 0.000255716 1 
7707 1 21.9318 17.019 -13.0226 3.42183e-05 1 
7708 1 24.5107 16.3935 -11.9395 0.000117266 1 
7709 1 22.2212 14.8642 -11.1563 0.000259613 1 
7710 1 24.8 14.2381 -10.0673 0.000901348 1 
7711 1 24.2238 13.6844 -12.8212 0.000112305 1 
7712 1 26.7991 13.0594 -11.7389 0.000188362 1 
7713 1 24.5101 11.5336 -10.9467 0.000587163 1 
7714 1 27.0808 10.9103 -9.86334 0.00135574 1 
7715 1 26.5112 10.3531 -12.6224 0.000138127 1 
7716 1 29.0855 9.72775 -11.5469 0.000270135 1 
7717 1 26.7951 8.20203 -10.757 0.000386529 1 
7718 1 29.3703 7.57457 -9.68595 0.000648302 1 
7719 1 28.8011 7.01856 -12.4329 9.13735e-05 1 
7720 1 31.38 6.39267 -11.3567 0.000151216 1 
7721 1 29.0884 4.86183 -10.5727 0.000311931 1 
7722 1 31.671 4.2349 -9.49713 0.000943694 1 
7723 1 31.0956 3.682 -12.2392 9.47001e-05 1 
7724 1 33.6763 3.05652 -11.1563 0.000259613 1 
7725 1 31.3839 1.52803 -10.3717 0.000435533 1 
7726 1 33.9645 0.907211 -9.28105 0.00113802 1 
7727 1 33.3885 0.349441 -12.0359 0.000124794 1 
7728 1 40.2574 0.0718108 -13.413 4.34582e-05 1 
7731 1 48.5621 32.7869 -14.2971 3.18012e-05 1 
7732 1 8.1829 32.1616 -13.219 5.15032e-05 1 
7734 1 10.1892 30.9803 -14.8874 9.24212e-06 1 
7735 1 7.89749 29.4522 -14.1031 2.22296e-05 1 
7736 1 10.4767 28.8267 -13.0226 3.42183e-05 1 
7738 1 12.4811 27.6459 -14.6897 1.60611e-05 1 
7739 1 10.1906 26.1172 -13.9051 3.10835e-05 1 
7740 1 12.7686 25.4921 -12.8212 0.000112305 1 
7742 1 14.7711 24.3123 -14.4918 2.24094e-05 1 
7743 1 12.4811 22.7846 -13.7039 7.45544e-05 1 
7744 1 15.0561 22.1607 -12.6224 0.000138127 1 
7746 1 17.0605 20.9792 -14.2971 3.18012e-05 1 
7747 1 14.7698 19.452 -13.5095 4.77934e-05 1 
7748 1 17.346 18.8262 -12.4329 9.13735e-05 1 
7750 1 19.3526 17.6445 -14.1031 2.22296e-05 1 
7751 1 17.0612 16.1161 -13.3177 4.17365e-05 1 
7752 1 19.6404 15.4897 -12.2392 9.47001e-05 1 
7753 1 19.0669 14.9351 -14.9865 1.19987e-05 1 
7754 1 21.6457 14.3096 -13.9051 3.10835e-05 1 
7755 1 19.3541 12.7815 -13.1203 4.63266e-05 1 
7756 1 21.9333 12.1571 -12.0359 0.000124794 1 
7757 1 21.3589 11.6013 -14.7876 1.67831e-05 1 
7758 1 23.9362 10.9769 -13.7039 7.45544e-05 1 
7759 1 21.6455 9.44949 -12.92 5.2035e-05 1 
7760 1 24.2221 8.82595 -11.8346 0.000277688 1 
7761 1 23.6492 8.26861 -14.5892 3.32983e-05 1 
7762 1 26.2249 7.64429 -13.5095 4.77934e-05 1 
7763 1 23.936 6.11594 -12.7224 0.000141288 1 
7764 1 26.5108 5.49024 -11.646 0.00022012 1 
7765 1 25.9391 4.93448 -14.3954 2.06597e-05 1 
7766 1 28.5163 4.30838 -13.3177 4.17365e-05 1 
7767 1 26.2254 2.77967 -12.5305 9.76571e-05 1 
7768 1 28.8034 2.15272 -11.4531 0.000190143 1 
7769 1 28.2304 1.59934 -14.2007 2.06748e-05 1 
7770 1 30.8092 0.973787 -13.1203 4.63266e-05 1 
7780 1 7.61178 26.7428 -14.9865 1.19987e-05 1 
7784 1 9.90376 23.409 -14.7876 1.67831e-05 1 
7788 1 12.194 20.0763 -14.5892 3.32983e-05 1 
7792 1 14.484 16.7422 -14.3954 2.06597e-05 1 
7796 1 16.7753 13.407 -14.2007 2.06748e-05 1 
7800 1 19.067 10.0738 -14.0031 1.91815e-05 1 
7803 1 18.7805 7.36496 -14.8874 9.24212e-06 1 
7804 1 21.3589 6.7401 -13.8054 1.98378e-05 1 
7807 1 21.0724 4.03053 -14.6897 1.60611e-05 1 
7808 1 23.6493 3.40562 -13.6085 4.301e-05 1 
7811 1 23.3625 0.696946 -14.4918 2.24094e-05 1 
7925 1 24.85 34.4153 -2.35559 5.33393 5 
7926 1 27.2127 33.733 -1.00457 9.02617 5 
7927 1 27.1664 31.1818 -2.10854 3.23658 5 
7928 1 30.0347 30.556 -1.30909 8.00608 5 
7929 1 27.468 29.1673 -0.403473 5.00966 5 
7930 1 29.4858 27.7593 -1.80715 0.747081 1 
7931 1 31.57 24.3969 -1.42158 7.87843 5 
7932 1 34.3361 23.8844 -0.90703 10.4943 5 
7933 1 34.282 20.9312 -1.40274 6.59484 5 
7934 1 36.2393 17.8091 -1.42603 8.08189 5 
7935 1 38.9231 17.3596 -0.403473 5.00966 5 
7936 1 38.7402 14.4704 -0.871062 2.02602 5 
7937 1 39.7972 9.64207 -0.667515 10.9161 5 
7938 1 22.1118 34.949 -3.33024 0.772971 1 
7939 1 19.8223 33.3153 -2.43512 5.60202 5 
7940 1 22.8269 32.7389 -1.40274 6.59484 5 
7941 1 21.9051 32.314 -4.20301 0.256315 1 
7942 1 24.5628 31.6968 -3.19984 1.37632 5 
7943 1 22.2516 30.1669 -2.46806 4.96541 5 
7944 1 24.7842 29.6168 -1.42603 8.08189 5 
7945 1 24.253 28.9663 -4.08507 0.0830359 1 
7946 1 26.8659 28.3537 -2.9519 0.208856 1 
7947 1 24.5518 26.9177 -2.17452 0.348257 1 
7948 1 27.285 26.2781 -0.871062 2.02602 5 
7949 1 26.5401 25.6666 -3.73336 0.0738879 1 
7950 1 29.0953 25.0156 -2.52552 2.76504 5 
7951 1 26.7965 23.5424 -1.85323 7.59319 5 
7952 1 28.3421 21.4497 -0.667515 10.9161 5 
7953 1 28.7948 22.2958 -3.45281 4.81679 5 
7954 1 31.2774 21.5076 -2.43512 5.60202 5 
7955 1 29.9339 19.2366 -1.16088 11.1808 5 
7956 1 31.1501 18.9107 -3.51836 3.4556 5 
7957 1 33.7068 18.3592 -2.46806 4.96541 5 
7958 1 31.4078 16.8505 -1.52191 5.81909 2 
7959 1 33.4043 15.6042 -3.20056 0.184898 1 
7960 1 36.007 15.11 -2.17452 0.348257 1 
7961 1 35.6949 12.3688 -2.93826 0.289557 1 
7962 1 38.2517 11.7348 -1.85323 7.59319 5 
7963 1 35.8041 10.1177 -1.00457 9.02617 5 
7964 1 37.9434 9.08187 -2.82302 5.44164 5 
7965 1 41.389 7.42892 -1.16088 11.1808 5 
7966 1 38.6261 6.94065 -1.30909 8.00608 5 
7967 1 40.3693 5.45913 -2.71594 6.30181 5 
7968 1 42.4877 2.40315 -2.40072 0.873738 1 
7969 1 14.7674 34.7916 -4.64805 0.0445457 1 
7970 1 17.3397 34.1035 -3.45281 4.81679 5 
7971 1 16.7674 33.5676 -6.2956 0.0251905 1 
7972 1 19.3055 32.9287 -5.24604 0.101306 1 
7973 1 17.0677 31.3909 -4.37804 6.00058 5 
7974 1 19.6949 30.7184 -3.51836 3.4556 5 
7975 1 19.0591 30.2059 -6.17343 0.0379221 1 
7976 1 21.6648 29.5653 -5.1264 0.0374677 1 
7977 1 19.3977 28.0065 -4.35341 0.177158 1 
7978 1 21.9492 27.4119 -3.20056 0.184898 1 
7979 1 21.3707 26.8533 -5.96296 0.0309501 1 
7980 1 23.9377 26.2524 -4.87487 0.0457247 1 
7981 1 21.5954 24.7559 -3.98358 0.405009 1 
7982 1 24.2397 24.1765 -2.93826 0.289557 1 
7983 1 23.6337 23.5774 -5.72322 0.0345728 1 
7984 1 26.2225 22.9839 -4.64805 0.0445457 1 
7985 1 23.9568 21.4505 -3.90664 0.114359 1 
7986 1 26.4883 20.8895 -2.82302 5.44164 5 
7987 1 25.948 20.2472 -5.57058 0.0286358 1 
7988 1 28.5229 19.5832 -4.37804 6.00058 5 
7989 1 26.2524 18.0688 -3.76825 0.336249 5 
7990 1 28.9141 17.2668 -2.71594 6.30181 5 
7991 1 28.2517 16.8527 -5.39179 0.0851118 1 
7992 1 30.8529 16.1988 -4.35341 0.177158 1 
7993 1 28.512 14.6636 -3.46413 0.208785 1 
7994 1 31.0325 14.2108 -2.40072 0.873738 1 
7995 1 30.4985 13.5114 -5.15677 0.0773757 1 
7996 1 33.0505 12.9482 -3.98358 0.405009 1 
7997 1 30.7031 11.3336 -3.33024 0.772971 1 
7998 1 33.4413 10.7999 -2.35559 5.33393 5 
7999 1 32.7878 10.2373 -5.01532 0.078752 1 
8000 1 35.412 9.64286 -3.90664 0.114359 1 
8001 1 33.1542 8.08142 -3.19984 1.37632 5 
8002 1 35.7578 7.56645 -2.10854 3.23658 5 
8003 1 35.1321 6.89769 -4.81263 0.0194587 1 
8004 1 37.7076 6.2611 -3.76825 0.336249 5 
8005 1 35.4573 4.73833 -2.9519 0.208856 1 
8006 1 38.0771 4.14397 -1.80715 0.747081 1 
8007 1 37.429 3.51956 -4.54651 0.0503701 1 
8008 1 39.9672 2.85595 -3.46413 0.208785 1 
8009 1 37.6867 1.40029 -2.52552 2.76504 5 
8010 1 40.1613 0.78154 -1.42158 7.87843 5 
8011 1 39.6351 0.177016 -4.25101 0.165734 1 
8012 1 12.1786 35.385 -5.72322 0.0345728 1 
8013 1 11.6196 34.8082 -8.49804 0.00267737 1 
8014 1 14.196 34.1965 -7.40926 0.0053554 1 
8015 1 11.9098 32.6673 -6.64874 0.00457408 1 
8016 1 14.4928 32.0549 -5.57058 0.0286358 1 
8017 1 13.918 31.4737 -8.30741 0.00197155 1 
8018 1 16.4963 30.8542 -7.19717 0.0305019 1 
8019 1 14.2151 29.3089 -6.45478 0.0110106 1 
8020 1 16.7965 28.6604 -5.39179 0.0851118 1 
8021 1 16.2074 28.1238 -8.11136 0.00649133 1 
8022 1 18.7833 27.4814 -7.05309 0.0130067 1 
8023 1 16.4895 25.9488 -6.2159 0.01563 1 
8024 1 19.0434 25.3191 -5.15677 0.0773757 1 
8025 1 18.4858 24.7869 -7.91151 0.00503797 1 
8026 1 21.0649 24.1801 -6.81807 0.0235481 1 
8027 1 18.7409 22.6424 -6.04964 0.0285349 1 
8028 1 21.3327 22.045 -5.01532 0.078752 1 
8029 1 20.7729 21.4732 -7.73208 0.00454963 1 
8030 1 23.3649 20.8597 -6.64874 0.00457408 1 
8031 1 21.0703 19.3275 -5.888 0.0123348 1 
8032 1 23.6769 18.7054 -4.81263 0.0194587 1 