ITEM: TIMESTEP
0
ITEM: NUMBER OF ATOMS
7622
ITEM: BOX BOUNDS xy xz yz pp pp ss
0 93.54810932000001 10.350423054
0 51.223871316 0
-96.01240304311335 102.2089740774376 0
ITEM: ATOMS id type x y z c_csym c_cna 
1 1 83.2769 2.6091 -0.738388 2.80644 5 
2 1 81.7819 0.400485 -2.43374 1.23464 1 
3 1 82.9422 6.2723 -6.83105 0.027215 1 
4 1 82.8284 7.7277 -3.02218 1.24541 5 
6 1 80.5884 0.492576 -13.401 0.000195578 1 
7 1 81.8669 2.63901 -12.0069 0.000203953 1 
8 1 92.3187 51.199 -10.9468 0.00115439 1 
9 1 80.391 1.97231 -9.63788 0.00207833 1 
10 1 81.6644 4.12394 -8.23875 0.00115061 1 
11 1 81.771 1.46085 -7.19623 0.0176325 1 
12 1 80.1836 3.46753 -5.86214 0.00662781 1 
13 1 81.4366 5.59957 -4.43701 0.0719358 1 
14 1 81.5438 2.96051 -3.39249 0.391288 1 
15 1 82.696 5.01264 -1.9486 6.04625 5 
16 1 79.8164 4.89394 -2.07114 5.97264 5 
17 1 81.013 6.88269 -0.689821 11.0514 5 
18 1 89.469 51.0474 -11.0248 0.00130403 1 
19 1 78.9214 1.31241 -7.27638 0.0150796 1 
20 1 80.3166 0.818833 -4.84761 0.136434 1 
21 1 77.4602 0.67244 -4.94395 0.098178 1 
22 1 78.6919 2.83237 -3.49584 0.273236 1 
23 1 78.8952 0.254242 -2.54518 0.89899 1 
24 1 80.3399 2.49265 -0.898039 1.70615 5 
25 1 77.4218 2.40806 -1.0449 1.62 5 
26 1 76.0202 0.086463 -2.66844 0.658377 1 
27 1 82.9591 10.1059 -12.7044 0.0003781 1 
28 1 82.7878 11.5811 -8.91652 0.00170534 1 
29 1 82.6595 13.0718 -5.12841 0.06469 1 
30 1 82.4009 14.3879 -1.13261 8.00637 5 
44 1 81.6736 7.96125 -14.1075 0.000115368 1 
45 1 81.7691 5.30078 -13.0579 0.000129066 1 
46 1 80.199 7.29535 -11.7364 0.000437665 1 
47 1 81.4952 9.43781 -10.3225 0.00182688 1 
48 1 81.5791 6.7835 -9.28128 0.00298672 1 
49 1 82.8915 8.92174 -7.84519 0.0160912 1 
50 1 80.0356 8.76776 -7.94535 0.00397858 1 
51 1 81.3482 10.9081 -6.52514 0.0127474 1 
52 1 81.435 8.25517 -5.4602 0.0277443 1 
53 1 82.7724 10.346 -3.99821 1.08286 5 
54 1 79.9183 10.1758 -4.12349 1.7818 5 
55 1 81.2616 12.3406 -2.8138 2.94103 5 
56 1 81.9868 9.48637 -0.978455 10.2774 5 
57 1 83.4824 11.8876 -0.193307 9.41812 5 
58 1 80.6854 11.8918 -0.263553 10.7547 5 
67 1 80.4878 3.15503 -14.4564 5.924e-05 1 
68 1 77.6306 3.00661 -14.5409 7.3328e-05 1 
69 1 78.9115 5.15051 -13.1396 0.000133115 1 
70 1 79.0106 2.48837 -12.0878 0.000306045 1 
71 1 80.2906 4.6356 -10.6883 0.000414069 1 
72 1 77.4309 4.4831 -10.7717 0.000586255 1 
73 1 78.7223 6.62716 -9.367 0.00188892 1 
74 1 78.8101 3.97138 -8.31978 0.0016766 1 
75 1 80.0974 6.11799 -6.90554 0.0103258 1 
76 1 77.228 5.9551 -7.00634 0.00835595 1 
77 1 78.554 8.08646 -5.5894 0.0257689 1 
78 1 78.5774 5.45924 -4.54771 0.0452435 1 
79 1 79.91 7.58841 -3.12145 2.42682 5 
80 1 76.9768 7.439 -3.27 3.24597 5 
81 1 79.258 9.54069 -1.21994 9.81314 5 
82 1 78.1383 6.88954 -0.828481 10.698 5 
84 1 77.7337 0.343688 -13.4854 0.000206117 1 
85 1 74.8776 0.196823 -13.5763 0.000203712 1 
86 1 76.1528 2.33951 -12.1741 0.000381972 1 
87 1 77.5356 1.82211 -9.72236 0.00201221 1 
88 1 74.6743 1.67255 -9.81213 0.00222087 1 
89 1 75.942 3.81508 -8.40596 0.00281592 1 
90 1 76.0625 1.16207 -7.36918 0.0122443 1 
91 1 77.321 3.31607 -5.95579 0.00812252 1 
92 1 74.4416 3.15214 -6.03309 0.0167131 1 
93 1 75.6934 5.29224 -4.64952 0.0404746 1 
94 1 75.8284 2.69919 -3.58583 0.172277 1 
95 1 76.959 4.81866 -2.17476 5.93045 5 
96 1 74.1046 4.68368 -2.21535 3.98281 5 
97 1 75.2717 6.84581 -0.93668 10.4865 5 
98 1 73.1948 1.00957 -7.45871 0.0134425 1 
99 1 74.5943 0.518278 -5.04433 0.0925518 1 
100 1 71.7158 0.354528 -5.12043 0.113586 1 
101 1 72.9371 2.5179 -3.62065 0.315098 1 
102 1 83.5036 51.0411 -2.80515 0.697997 1 
103 1 74.4998 2.17901 -1.21015 6.65096 5 
104 1 71.6623 1.60232 -1.27566 7.51214 5 
106 1 82.7594 15.4273 -14.808 9.37962e-05 1 
107 1 82.5693 16.9027 -11.0321 0.00113649 1 
108 1 82.3738 18.3891 -7.28062 0.0127003 1 
109 1 82.1411 19.906 -3.49834 0.238866 1 
134 1 82.8605 12.7663 -13.7562 0.000178566 1 
135 1 80.0061 12.6154 -13.84 0.000159986 1 
136 1 81.2896 14.7591 -12.4363 0.000311297 1 
137 1 81.3947 12.0975 -11.3807 0.000511799 1 
138 1 82.6804 14.2428 -9.9753 0.000984244 1 
139 1 79.8298 14.089 -10.0652 0.00091464 1 
140 1 81.1118 16.2327 -8.65553 0.00613981 1 
141 1 81.2355 13.5742 -7.59624 0.00328697 1 
142 1 82.5165 15.7178 -6.16105 0.0540274 1 
143 1 79.6728 15.5656 -6.28511 0.0313797 1 
144 1 80.9098 17.7501 -4.94839 0.088387 1 
145 1 81.082 15.0511 -3.74532 0.342599 1 
146 1 82.3439 17.3285 -2.54881 0.838071 1 
147 1 79.4671 17.1634 -2.67063 0.622575 1 
148 1 80.8528 19.473 -1.05587 1.6066 5 
149 1 80.8625 16.7522 -0.371763 6.22721 5 
175 1 78.8166 7.81128 -14.1908 9.77091e-05 1 
176 1 80.1059 9.95425 -12.7858 0.000298849 1 
177 1 77.2478 9.80336 -12.8754 0.000245403 1 
178 1 78.5407 11.9453 -11.4708 0.000541422 1 
179 1 78.6389 9.28421 -10.4155 0.000905622 1 
180 1 79.9412 11.4257 -9.00472 0.00165328 1 
181 1 77.0817 11.27 -9.1084 0.00207208 1 
182 1 78.3826 13.414 -7.70329 0.00288117 1 
183 1 78.4985 10.7436 -6.6372 0.0158777 1 
184 1 79.8103 12.8971 -5.23449 0.0432412 1 
185 1 76.9528 12.7111 -5.35623 0.0601868 1 
186 1 78.268 14.8685 -3.94127 0.211962 1 
187 1 78.4209 12.0848 -2.91871 3.1997 5 
188 1 79.5594 14.3218 -1.28873 7.29521 5 
189 1 76.8024 14.0161 -1.70504 6.38596 5 
190 1 77.9409 16.57 -0.504342 5.88035 5 
207 1 75.9574 7.66177 -14.2776 0.000158922 1 
208 1 76.0518 5.00079 -13.2248 0.000221137 1 
209 1 77.339 7.14237 -11.8221 0.000472426 1 
210 1 74.4742 6.98967 -11.9089 0.000874881 1 
211 1 75.7732 9.12963 -10.5119 0.000933472 1 
212 1 75.852 6.46839 -9.45548 0.00250715 1 
213 1 77.1668 8.60848 -8.05446 0.00411154 1 
214 1 74.287 8.44519 -8.15556 0.00404194 1 
215 1 75.6196 10.5815 -6.76504 0.0154501 1 
216 1 75.6624 7.91262 -5.7146 0.0357035 1 
217 1 77.0396 9.99398 -4.28983 2.3856 5 
218 1 74.1357 9.81096 -4.43889 5.5595 5 
219 1 75.5138 11.8178 -3.0763 6.40439 5 
220 1 76.5034 9.49258 -1.31449 9.83543 5 
221 1 77.8909 11.8755 -0.32697 8.71579 5 
222 1 75.1026 11.8699 -0.450213 7.59244 5 
231 1 74.7729 2.85965 -14.6292 9.31021e-05 1 
232 1 71.9149 2.71463 -14.7211 0.000112707 1 
233 1 73.1911 4.85266 -13.3125 0.000312102 1 
234 1 73.293 2.19261 -12.2645 0.000482871 1 
235 1 74.5656 4.33063 -10.8563 0.00104579 1 
236 1 71.7014 4.18116 -10.9406 0.00145283 1 
237 1 72.9779 6.30889 -9.5359 0.004922 1 
238 1 73.0686 3.65661 -8.48226 0.00535408 1 
239 1 74.3399 5.7831 -7.08549 0.0139676 1 
240 1 71.4606 5.61255 -7.14373 0.032466 1 
241 1 72.7704 7.73487 -5.80877 0.0383153 1 
242 1 72.8034 5.10262 -4.68213 0.0976128 1 
243 1 74.0689 7.27486 -3.37554 5.18997 5 
244 1 71.187 7.08338 -3.43343 5.35791 5 
245 1 73.7269 9.46496 -1.43292 9.68153 5 
246 1 72.4043 6.79203 -1.01612 9.82614 5 
248 1 72.0195 0.0519799 -13.6718 0.000275961 1 
249 1 79.5104 51.1336 -13.7694 0.000438202 1 
250 1 70.4335 2.04921 -12.3576 0.00067058 1 
251 1 71.8114 1.52656 -9.90316 0.00287514 1 
252 1 68.9512 1.38812 -9.99588 0.00417556 1 
253 1 70.2048 3.50691 -8.55475 0.0079646 1 
254 1 70.3306 0.867562 -7.54521 0.0164407 1 
255 1 71.5669 2.98541 -6.08063 0.0308358 1 
256 1 68.7157 2.83966 -6.12688 0.032427 1 
257 1 69.9425 4.91151 -4.66455 0.236999 1 
258 1 70.069 2.32569 -3.60286 0.533425 1 
259 1 71.2432 4.41966 -2.07183 5.97802 5 
260 1 68.3588 4.22445 -1.96303 7.89144 5 
261 1 69.5377 6.76172 -1.08361 10.2885 5 
262 1 67.4733 0.738585 -7.63694 0.0217864 1 
263 1 68.8619 0.208079 -5.19865 0.117287 1 
264 1 66.0087 0.0874874 -5.29756 0.127035 1 
265 1 67.2465 2.16934 -3.6514 0.510164 1 
266 1 68.8063 1.27552 -1.22774 3.34537 5 
267 1 65.9607 1.18872 -1.30977 1.84217 5 
271 1 82.3619 22.2267 -13.1405 0.000120801 1 
272 1 82.17 23.7001 -9.37045 0.00161425 1 
273 1 81.9814 25.1531 -5.60807 0.0285676 1 
274 1 82.7714 26.6168 -1.2007 9.97094 5 
308 1 81.0805 20.0833 -14.5437 6.56051e-05 1 
309 1 81.1834 17.421 -13.4906 0.000189619 1 
310 1 82.4614 19.5657 -12.0908 0.000256058 1 
311 1 79.602 19.4151 -12.1782 0.000349112 1 
312 1 80.8801 21.5578 -10.7753 0.000539888 1 
313 1 80.9858 18.8979 -9.72711 0.00169786 1 
314 1 82.2605 21.0444 -8.3234 0.00159599 1 
315 1 79.3889 20.8878 -8.41216 0.00276352 1 
316 1 80.6706 23.0244 -7.01537 0.0074117 1 
317 1 80.7684 20.3871 -5.96274 0.00879059 1 
318 1 82.0174 22.5203 -4.55804 0.0336754 1 
319 1 79.1349 22.3609 -4.65739 0.0412125 1 
320 1 80.3996 24.504 -3.2876 3.7435 5 
321 1 80.4068 21.8923 -2.17504 5.84171 5 
322 1 81.5907 23.9791 -0.847096 10.605 5 
323 1 78.727 23.9308 -0.946799 10.3847 5 
365 1 79.9037 15.2777 -14.8937 9.83647e-05 1 
366 1 77.0469 15.1301 -14.9845 0.000106971 1 
367 1 78.3265 17.2725 -13.5805 0.000202832 1 
368 1 78.4344 14.6089 -12.5268 0.000343635 1 
369 1 79.7143 16.7516 -11.122 0.000938452 1 
370 1 76.8556 16.604 -11.2192 0.00106946 1 
371 1 78.1225 18.7468 -9.81691 0.00210794 1 
372 1 78.2551 16.082 -8.7595 0.00443645 1 
373 1 79.5113 18.2365 -7.37455 0.0111144 1 
374 1 76.6426 18.0834 -7.46271 0.013086 1 
375 1 77.8873 20.2249 -6.03924 0.017069 1 
376 1 78.0426 17.5937 -5.04772 0.0882909 1 
377 1 79.2744 19.7742 -3.59089 0.157855 1 
378 1 76.384 19.5936 -3.62469 0.313739 1 
379 1 77.5526 21.7633 -2.22033 3.91963 5 
380 1 77.9408 19.2622 -1.21302 6.57335 5 
414 1 77.1493 12.4663 -13.9302 0.000169164 1 
415 1 74.2897 12.319 -14.024 0.000176761 1 
416 1 75.5752 14.4612 -12.6228 0.000360501 1 
417 1 75.6797 11.7947 -11.5677 0.00058185 1 
418 1 76.9718 13.9371 -10.1657 0.0010465 1 
419 1 74.107 13.789 -10.2689 0.00154615 1 
420 1 75.3932 15.9367 -8.8729 0.00783702 1 
421 1 75.5174 13.2549 -7.8151 0.0062459 1 
422 1 76.8148 15.4119 -6.41876 0.0254558 1 
423 1 73.9456 15.2698 -6.57131 0.0727712 1 
424 1 75.1638 17.4293 -5.12306 0.112881 1 
425 1 75.4014 14.7017 -4.14652 0.201251 1 
426 1 76.6011 16.8936 -2.80752 0.694862 1 
427 1 73.7347 16.6433 -2.85794 0.497389 1 
428 1 75.1086 18.6793 -1.2789 7.52511 5 
429 1 75.1571 15.8017 -0.644164 10.7087 5 
455 1 73.0973 7.51383 -14.3667 0.000271438 1 
456 1 74.3858 9.65351 -12.9674 0.000294631 1 
457 1 71.5233 9.50638 -13.0602 0.00038187 1 
458 1 72.814 11.647 -11.6656 0.000570128 1 
459 1 72.9034 8.97617 -10.6051 0.00112922 1 
460 1 74.2094 11.1163 -9.21546 0.00174135 1 
461 1 71.3337 10.9677 -9.3156 0.00224452 1 
462 1 72.6427 13.1057 -7.92593 0.0136546 1 
463 1 72.7308 10.4209 -6.87811 0.0190109 1 
464 1 74.0676 12.5443 -5.46429 0.16412 1 
465 1 71.164 12.3928 -5.59708 0.177593 1 
466 1 72.4918 14.5565 -4.36474 0.461195 1 
467 1 72.5655 11.6053 -3.22017 6.55977 2 
468 1 73.9041 13.7776 -2.07013 5.96447 2 
469 1 70.9886 13.6592 -2.29143 6.79301 5 
470 1 72.3209 15.44 -0.70285 2.89852 5 
487 1 70.2385 7.36871 -14.4585 0.000383746 1 
488 1 70.3321 4.70768 -13.4029 0.000370845 1 
489 1 71.6102 6.83976 -11.9957 0.00149242 1 
490 1 68.7509 6.69511 -12.0854 0.00211133 1 
491 1 70.0367 8.82834 -10.6964 0.00147732 1 
492 1 70.1111 6.15656 -9.61398 0.00844641 1 
493 1 71.4085 8.28601 -8.244 0.0047119 1 
494 1 68.5392 8.13935 -8.33004 0.00617438 1 
495 1 69.8416 10.2698 -6.97752 0.018256 1 
496 1 69.8923 7.56802 -5.88139 0.0441452 1 
497 1 71.2266 9.63437 -4.55246 5.70553 5 
498 1 68.3321 9.49277 -4.65228 5.33879 5 
499 1 69.6504 11.4822 -3.36706 6.54069 2 
500 1 70.9432 9.44276 -1.54571 9.71372 5 
501 1 72.3046 11.9551 -0.578676 7.09347 5 
502 1 69.4723 11.9342 -0.729666 6.813 5 
509 1 69.0574 2.57208 -14.8155 0.000148463 1 
510 1 66.2009 2.43189 -14.9117 0.000175402 1 
511 1 67.4758 4.56642 -13.4964 0.000457111 1 
512 1 67.5755 1.9098 -12.4523 0.00091188 1 
513 1 68.843 4.03818 -11.0276 0.00188412 1 
514 1 65.9899 3.9012 -11.1188 0.00224652 1 
515 1 67.2557 6.01404 -9.69666 0.0122399 1 
516 1 67.3531 3.37064 -8.63342 0.00935829 1 
517 1 68.603 5.45815 -7.19727 0.0526941 1 
518 1 65.7552 5.32342 -7.26911 0.0746828 1 
519 1 67.0269 7.43148 -5.96392 0.0558848 1 
520 1 67.0884 4.76259 -4.69523 0.383141 1 
521 1 68.3272 6.93058 -3.5003 5.70113 5 
522 1 65.4725 6.83796 -3.60289 5.75975 5 
523 1 68.1505 9.3858 -1.67183 9.42896 5 
524 1 66.6728 6.7463 -1.1771 10.3236 5 
526 1 76.6508 50.9938 -13.8668 0.000525631 1 
527 1 64.7194 1.77305 -12.5482 0.000950367 1 
528 1 66.0935 1.25489 -10.0899 0.00505587 1 
529 1 63.238 1.1227 -10.1847 0.00464389 1 
530 1 64.5052 3.24244 -8.72362 0.0101415 1 
531 1 64.6155 0.612532 -7.73249 0.023704 1 
532 1 65.8741 2.7126 -6.20479 0.0363929 1 
533 1 63.0279 2.59826 -6.30609 0.0404003 1 
534 1 64.231 4.65861 -4.79984 0.380005 1 
535 1 64.4145 2.06697 -3.75677 0.480984 1 
536 1 65.4871 4.16697 -2.08824 7.56189 5 
537 1 62.6213 4.10768 -2.19145 7.56141 5 
538 1 63.8096 6.70165 -1.29873 10.3768 5 
539 1 61.7616 0.484478 -7.82667 0.0227181 1 
540 1 73.5031 51.1944 -5.39764 0.122978 1 
541 1 70.6549 51.0751 -5.49832 0.151258 1 
542 1 61.5752 1.97845 -3.87524 0.435146 1 
543 1 63.1095 1.15625 -1.42838 1.68474 5 
544 1 60.2508 1.14722 -1.55373 1.7116 5 
550 1 81.9909 29.0203 -11.469 0.000628237 1 
551 1 81.8313 30.4872 -7.70056 0.00287661 1 
552 1 81.7163 31.9373 -3.93714 0.216099 1 
553 1 82.9181 34.2321 -2.67 0.636311 1 
554 1 83.0137 31.3754 -1.28684 7.2899 5 
555 1 81.3958 33.6203 -0.508345 5.82227 5 
597 1 82.2669 24.887 -14.1903 9.41811e-05 1 
598 1 79.4065 24.7373 -14.2792 0.000159963 1 
599 1 80.6969 26.8789 -12.8765 0.000233324 1 
600 1 80.7876 24.2173 -11.8247 0.000460829 1 
601 1 82.0862 26.3591 -10.4184 0.00083447 1 
602 1 79.2194 26.2045 -10.5167 0.000855156 1 
603 1 80.5282 28.3454 -9.11258 0.00181851 1 
604 1 80.6083 25.6816 -8.06365 0.00401201 1 
605 1 81.9408 27.8177 -6.64642 0.0165176 1 
606 1 79.062 27.6559 -6.77275 0.0160033 1 
607 1 80.3983 29.7837 -5.35793 0.0654785 1 
608 1 80.4748 27.063 -4.30496 2.72421 5 
609 1 81.8594 29.1418 -2.91863 3.61622 5 
610 1 78.9558 28.8859 -3.08145 6.54617 5 
611 1 80.2544 31.0813 -1.70709 6.43249 5 
612 1 81.3685 28.9528 -0.321285 8.70325 5 
671 1 78.2218 19.9353 -14.6323 9.10281e-05 1 
672 1 79.5007 22.0762 -13.2276 0.000213744 1 
673 1 76.639 21.9276 -13.3156 0.00031316 1 
674 1 77.9215 24.0644 -11.9127 0.000873554 1 
675 1 78.0129 21.4048 -10.8609 0.0010276 1 
676 1 79.2976 23.5416 -9.46159 0.00241183 1 
677 1 76.4232 23.3827 -9.54096 0.0049444 1 
678 1 77.7302 25.5191 -8.16248 0.00391474 1 
679 1 77.7831 22.8551 -7.09277 0.0140577 1 
680 1 79.0994 24.9834 -5.72619 0.0378047 1 
681 1 76.2127 24.8084 -5.81536 0.0397258 1 
682 1 77.5788 26.8837 -4.44567 5.53299 5 
683 1 77.5065 24.3483 -3.38323 5.17037 5 
684 1 79.9941 26.5791 -1.32714 9.73616 5 
685 1 77.1991 26.5452 -1.43792 9.63674 5 
686 1 78.5704 28.9474 -0.45158 7.60581 5 
737 1 75.3632 19.7897 -14.7237 0.000114905 1 
738 1 75.468 17.1268 -13.6748 0.000281564 1 
739 1 76.7411 19.2673 -12.2682 0.000478649 1 
740 1 73.8813 19.1237 -12.3602 0.000677551 1 
741 1 75.1483 21.2553 -10.9443 0.00147401 1 
742 1 75.259 18.6005 -9.90665 0.00287717 1 
743 1 76.5147 20.7299 -8.48732 0.00544024 1 
744 1 73.6512 20.5808 -8.55798 0.00807106 1 
745 1 74.9052 22.6861 -7.1484 0.0328753 1 
746 1 75.013 20.0591 -6.08454 0.03115 1 
747 1 76.2473 22.1758 -4.6877 0.0986489 1 
748 1 73.3885 21.9859 -4.66742 0.235887 1 
749 1 74.632 24.1582 -3.43651 5.34891 5 
750 1 74.6926 21.4965 -2.07557 5.92971 5 
751 1 75.8576 23.8714 -1.02081 9.84749 5 
752 1 72.9896 23.8379 -1.08566 10.2855 5 
795 1 72.6085 16.9844 -13.7713 0.000444896 1 
796 1 72.7132 14.3168 -12.7205 0.00038248 1 
797 1 73.9939 16.4611 -11.3205 0.00206202 1 
798 1 71.1302 16.3228 -11.4212 0.00327557 1 
799 1 72.3989 18.4624 -9.99805 0.00418529 1 
800 1 72.5243 15.8 -8.98862 0.0179393 1 
801 1 73.7783 17.9416 -7.5478 0.0164043 1 
802 1 70.9213 17.813 -7.63837 0.0217665 1 
803 1 72.1624 19.914 -6.12901 0.0324255 1 
804 1 72.3098 17.2827 -5.20033 0.117456 1 
805 1 73.5163 19.401 -3.6052 0.533057 1 
806 1 70.6941 19.2444 -3.65231 0.509033 1 
807 1 71.8089 21.3003 -1.96494 7.88791 5 
808 1 72.2532 18.3511 -1.22977 3.37102 5 
841 1 71.4289 12.1746 -14.1194 0.000183771 1 
842 1 68.5695 12.0337 -14.2165 0.00019509 1 
843 1 69.8506 14.1763 -12.818 0.000393729 1 
844 1 69.9484 11.5038 -11.7624 0.000679637 1 
845 1 71.2377 13.6467 -10.3706 0.0020838 1 
846 1 68.3673 13.5099 -10.4691 0.00186977 1 
847 1 69.6505 15.6676 -9.09255 0.0224118 1 
848 1 69.7569 12.9681 -8.03626 0.0112707 1 
849 1 71.06 15.1417 -6.70985 0.134067 1 
850 1 68.1623 15.0137 -6.80677 0.117834 1 
851 1 69.457 17.1622 -5.2983 0.127163 1 
852 1 69.5848 14.4435 -4.51795 0.622239 1 
853 1 70.8879 16.4778 -2.93934 0.404556 1 
854 1 68.0335 16.3876 -3.04393 0.387745 1 
855 1 69.408 18.2634 -1.31023 1.83607 5 
856 1 69.4633 15.351 -0.808873 1.74807 5 
881 1 67.3821 7.22693 -14.5536 0.000486962 1 
882 1 68.6635 9.36343 -13.1552 0.000456671 1 
883 1 65.807 9.22469 -13.2539 0.000539541 1 
884 1 67.0872 11.3657 -11.8612 0.000703801 1 
885 1 67.1767 8.68735 -10.7917 0.00178781 1 
886 1 68.4612 10.8269 -9.41195 0.00244107 1 
887 1 65.5998 10.6941 -9.51387 0.00284132 1 
888 1 66.871 12.8375 -8.12958 0.00936158 1 
889 1 66.9631 10.143 -7.0695 0.0219941 1 
890 1 68.2597 12.2755 -5.71452 0.150357 1 
891 1 65.3487 12.1537 -5.78568 0.167295 1 
892 1 66.662 14.3212 -4.5706 0.389074 1 
893 1 66.7668 11.4057 -3.50199 6.75032 2 
894 1 68.1065 13.5941 -2.40696 7.21396 5 
895 1 65.1743 13.4675 -2.34271 7.07027 5 
896 1 66.6014 15.3293 -0.922357 2.1655 5 
912 1 64.5276 7.08817 -14.6523 0.000571912 1 
913 1 64.622 4.42825 -13.5931 0.00052315 1 
914 1 65.8965 6.5557 -12.1798 0.0027003 1 
915 1 63.0451 6.42072 -12.2798 0.00299715 1 
916 1 64.3217 8.55312 -10.8924 0.00223182 1 
917 1 64.4065 5.88014 -9.78908 0.0152077 1 
918 1 65.6824 8.00432 -8.42576 0.00819772 1 
919 1 62.8291 7.88049 -8.53195 0.00832983 1 
920 1 64.1048 10.0214 -7.18451 0.0254825 1 
921 1 64.1714 7.32015 -6.06613 0.0493704 1 
922 1 65.4524 9.39905 -4.76118 5.54287 5 
923 1 62.6118 9.32309 -4.87437 5.39008 5 
924 1 63.9251 11.2734 -3.38885 7.52916 5 
925 1 65.3339 9.30872 -1.78806 8.22137 5 
926 1 66.6519 11.8447 -0.892029 11.0795 5 
935 1 61.7697 4.29221 -13.6938 0.000544305 1 
936 1 61.8656 1.63749 -12.6459 0.000740586 1 
937 1 63.1393 3.76789 -11.2158 0.00232668 1 
938 1 60.29 3.63603 -11.3198 0.00215734 1 
939 1 61.5572 5.75331 -9.89495 0.0141217 1 
940 1 61.6569 3.11736 -8.82469 0.00977541 1 
941 1 62.904 5.20664 -7.37273 0.0709407 1 
942 1 60.0565 5.09408 -7.48286 0.069561 1 
943 1 61.321 7.21978 -6.17693 0.0529772 1 
944 1 61.3779 4.56256 -4.90824 0.416836 1 
945 1 62.6176 6.75227 -3.72467 5.68629 5 
946 1 59.7611 6.67624 -3.84573 5.78405 5 
947 1 62.4866 9.21288 -1.96848 7.32739 5 
948 1 60.9424 6.69016 -1.42418 10.7313 5 
950 1 59.0136 1.50249 -12.7472 0.000515339 1 
951 1 60.3867 0.990108 -10.2815 0.00346238 1 
952 1 57.5388 0.857691 -10.3849 0.00256261 1 
953 1 58.8114 2.99279 -8.93402 0.00877182 1 
954 1 58.9147 0.356707 -7.92419 0.0235035 1 
955 1 60.1809 2.48802 -6.41467 0.0407848 1 
956 1 57.3387 2.37696 -6.53176 0.0399308 1 
957 1 58.5339 4.46786 -5.02028 0.436178 1 
958 1 58.7321 1.89631 -3.99079 0.38638 1 
959 1 59.7731 4.06398 -2.29749 7.55287 5 
960 1 56.9502 3.98899 -2.40227 7.49471 5 
961 1 58.0708 6.66799 -1.55239 10.734 5 
962 1 56.0718 0.227247 -8.03478 0.0260724 1 
963 1 55.8873 1.8152 -4.11163 0.382295 1 
964 1 57.3778 1.10202 -1.67767 1.41293 5 
965 1 54.5051 1.05941 -1.8122 1.34213 5 
972 1 81.7775 34.3464 -13.5765 0.000203423 1 
973 1 81.5733 35.8202 -9.81289 0.00213098 1 
974 1 82.8399 37.9604 -8.40755 0.0027585 1 
975 1 82.962 35.3079 -7.36961 0.0116074 1 
976 1 81.338 37.2973 -6.03554 0.0172158 1 
977 1 82.5857 39.4329 -4.65283 0.0403726 1 
978 1 82.7249 36.8448 -3.58754 0.151163 1 
979 1 81.0049 38.8307 -2.21345 3.93744 5 
980 1 82.1773 41.0015 -0.943447 10.423 5 
1030 1 80.4976 32.205 -14.982 0.000101665 1 
1031 1 80.5996 29.5417 -13.929 0.000173396 1 
1032 1 81.8852 31.6833 -12.5232 0.000327907 1 
1033 1 79.0252 31.5366 -12.6219 0.00034604 1 
1034 1 80.3062 33.6785 -11.2164 0.00106123 1 
1035 1 80.4215 31.012 -10.1645 0.00103643 1 
1036 1 81.7056 33.1551 -8.75522 0.00460705 1 
1037 1 78.843 33.0115 -8.87177 0.0077639 1 
1038 1 80.093 35.157 -7.46 0.0131696 1 
1039 1 80.2642 32.4849 -6.41712 0.025831 1 
1040 1 81.4929 34.6648 -5.04493 0.0902482 1 
1041 1 78.6139 34.5025 -5.12145 0.112362 1 
1042 1 79.8335 36.6654 -3.62204 0.307923 1 
1043 1 80.0508 33.966 -2.80535 0.685134 1 
1044 1 81.3868 36.3198 -1.21429 6.59529 5 
1045 1 78.5548 35.7495 -1.27617 7.49502 5 
1122 1 77.7389 29.3947 -14.0245 0.000163793 1 
1123 1 77.8338 26.729 -12.9698 0.000279721 1 
1124 1 79.1282 28.8704 -11.5695 0.000531953 1 
1125 1 76.2616 28.7225 -11.6677 0.000549997 1 
1126 1 77.5556 30.8645 -10.2698 0.00154883 1 
1127 1 77.6553 28.1917 -9.21963 0.0017111 1 
1128 1 78.9651 30.3299 -7.81677 0.00653723 1 
1129 1 76.0901 30.1809 -7.9281 0.0135645 1 
1130 1 77.3945 32.3444 -6.57175 0.0724967 1 
1131 1 77.5137 29.6187 -5.46786 0.165704 1 
1132 1 78.8499 31.7745 -4.1473 0.20453 1 
1133 1 75.9407 31.6308 -4.36573 0.461795 1 
1134 1 77.1854 33.7155 -2.85667 0.493812 1 
1135 1 77.3549 30.8491 -2.07196 5.98 2 
1136 1 78.6107 32.8682 -0.644137 10.6886 5 
1137 1 75.7733 32.5129 -0.703569 2.86237 5 
1204 1 76.5454 24.5891 -14.3689 0.00027256 1 
1205 1 73.6861 24.4439 -14.4602 0.000385885 1 
1206 1 74.9707 26.5817 -13.0622 0.000373443 1 
1207 1 75.057 23.9145 -11.9988 0.00150068 1 
1208 1 76.3494 26.051 -10.6091 0.0010941 1 
1209 1 73.4829 25.9033 -10.699 0.00145629 1 
1210 1 74.78 28.0428 -9.31838 0.00221033 1 
1211 1 74.8532 25.3604 -8.24837 0.00464141 1 
1212 1 76.1753 27.4955 -6.88267 0.0190791 1 
1213 1 73.2876 27.3445 -6.97998 0.0181654 1 
1214 1 74.6111 29.4676 -5.59946 0.177251 1 
1215 1 74.6725 26.7085 -4.55579 5.69803 5 
1216 1 76.0111 28.6785 -3.22371 6.58596 2 
1217 1 73.0983 28.5568 -3.36853 6.57076 2 
1218 1 74.4395 30.733 -2.29201 6.80493 5 
1219 1 75.7636 29.0301 -0.580886 7.07209 5 
1277 1 72.5055 19.6471 -14.8173 0.000150866 1 
1278 1 73.7796 21.7825 -13.4053 0.000377289 1 
1279 1 70.9231 21.6415 -13.4977 0.000461252 1 
1280 1 72.1976 23.77 -12.0874 0.00212181 1 
1281 1 72.2899 21.1127 -11.0299 0.00190911 1 
1282 1 73.5569 23.2308 -9.61727 0.0085053 1 
1283 1 70.7021 23.0888 -9.69828 0.0122564 1 
1284 1 71.9851 25.214 -8.33225 0.00613333 1 
1285 1 72.049 22.5325 -7.19972 0.0527275 1 
1286 1 73.3376 24.6423 -5.88444 0.0446005 1 
1287 1 70.4738 24.5063 -5.96503 0.0559725 1 
1288 1 71.7795 26.5676 -4.65355 5.35593 5 
1289 1 71.775 24.0055 -3.50143 5.6959 5 
1290 1 74.4046 26.5196 -1.54804 9.69977 5 
1291 1 71.6059 26.4613 -1.67254 9.44116 5 
1292 1 72.927 29.0087 -0.730711 6.80845 5 
1341 1 69.649 19.5072 -14.9126 0.000176728 1 
1342 1 69.7492 16.845 -13.868 0.000532211 1 
1343 1 71.0233 18.9846 -12.4539 0.000914712 1 
1344 1 68.1675 18.8483 -12.5488 0.000950213 1 
1345 1 69.437 20.9762 -11.1198 0.00225267 1 
1346 1 69.5415 18.3297 -10.091 0.00505372 1 
1347 1 70.8 20.4451 -8.63509 0.00938172 1 
1348 1 67.9526 20.3175 -8.72406 0.0101073 1 
1349 1 69.2021 22.3983 -7.26995 0.0746101 1 
1350 1 69.3214 19.7873 -6.20561 0.0361799 1 
1351 1 70.5358 21.8374 -4.69649 0.381704 1 
1352 1 67.679 21.7338 -4.80009 0.378187 1 
1353 1 68.9211 23.9132 -3.60318 5.75663 5 
1354 1 68.9377 21.2423 -2.08934 7.55196 5 
1355 1 70.1239 23.8218 -1.17799 10.3256 5 
1356 1 67.2603 23.7776 -1.29893 10.3859 5 
1399 1 66.8917 16.7077 -13.9642 0.000415593 1 
1400 1 66.9904 14.0395 -12.9159 0.000352769 1 
1401 1 68.2673 16.1871 -11.517 0.00309837 1 
1402 1 65.4088 16.0525 -11.6089 0.00171031 1 
1403 1 66.6865 18.198 -10.185 0.00464211 1 
1404 1 66.7789 15.5344 -9.17927 0.0152952 1 
1405 1 68.0639 17.6874 -7.73311 0.0236926 1 
1406 1 65.2104 17.5597 -7.82676 0.0227496 1 
1407 1 66.4757 19.6733 -6.30591 0.0401442 1 
1408 1 66.6014 17.0455 -5.39789 0.123088 1 
1409 1 67.8626 19.1419 -3.75676 0.478621 1 
1410 1 65.0234 19.0534 -3.87447 0.430793 1 
1411 1 66.0733 21.183 -2.19199 7.54184 5 
1412 1 66.5566 18.2306 -1.42856 1.66745 5 
1445 1 65.7123 11.896 -14.316 0.000218576 1 
1446 1 62.8572 11.7609 -14.418 0.000260262 1 
1447 1 64.1341 13.9055 -13.0147 0.000344844 1 
1448 1 64.2304 11.2323 -11.9629 0.00091351 1 
1449 1 65.5045 13.3779 -10.566 0.0012746 1 
1450 1 62.6514 13.2497 -10.6626 0.00116271 1 
1451 1 63.9201 15.401 -9.25566 0.00607785 1 
1452 1 64.0108 12.7132 -8.2207 0.00518658 1 
1453 1 65.2729 14.8781 -6.85673 0.0606897 1 
1454 1 62.4267 14.742 -6.89039 0.0445266 1 
1455 1 63.7536 16.9261 -5.49831 0.151365 1 
1456 1 63.7579 14.1649 -4.5052 0.434115 5 
1457 1 65.1765 16.3072 -3.14964 0.479485 1 
1458 1 62.3185 16.2508 -3.25719 1.33098 5 
1459 1 63.6969 18.2202 -1.55395 1.67353 5 
1460 1 63.7081 15.3459 -1.05973 6.99462 5 
1484 1 61.6743 6.95185 -14.7547 0.000589052 1 
1485 1 62.9528 9.08963 -13.3565 0.000608342 1 
1486 1 60.0998 8.95708 -13.4626 0.000601049 1 
1487 1 61.3777 11.1026 -12.0674 0.00116201 1 
1488 1 61.4699 8.42449 -10.999 0.00233525 1 
1489 1 62.7445 10.5697 -9.61883 0.0046412 1 
1490 1 59.8977 10.4493 -9.72522 0.0057289 1 
1491 1 61.1699 12.5971 -8.30909 0.00545602 1 
1492 1 61.2568 9.91354 -7.28807 0.0287122 1 
1493 1 62.5212 12.0313 -5.86053 0.0910821 1 
1494 1 59.6961 11.9432 -5.95507 0.0982308 1 
1495 1 60.974 14.0097 -4.41848 0.74822 5 
1496 1 61.0697 11.1972 -3.51731 7.47649 5 
1497 1 62.3889 13.0399 -1.96535 8.51656 5 
1498 1 59.5206 12.9697 -2.05829 8.74556 5 
1499 1 60.8587 15.2771 -1.20793 7.26608 2 
1514 1 58.8202 6.81686 -14.8602 0.00051036 1 
1515 1 58.9173 4.15717 -13.7985 0.000534415 1 
1516 1 60.1946 6.28884 -12.3869 0.00262785 1 
1517 1 57.3436 6.15741 -12.4983 0.00217553 1 
1518 1 58.6208 8.29781 -11.1097 0.00235456 1 
1519 1 58.7112 5.62834 -10.0085 0.0123563 1 
1520 1 59.9809 7.76339 -8.64238 0.00920452 1 
1521 1 57.1368 7.643 -8.75969 0.00997749 1 
1522 1 58.4148 9.80706 -7.40078 0.0312505 1 
1523 1 58.4727 7.11832 -6.29248 0.0593385 1 
1524 1 59.7624 9.2347 -4.99052 5.4428 5 
1525 1 56.9167 9.14332 -5.10732 5.05133 5 
1526 1 58.2239 11.1298 -3.63121 7.49332 5 
1527 1 59.6362 9.17605 -2.09517 7.38923 5 
1535 1 56.0627 4.02201 -13.9056 0.000457791 1 
1536 1 56.1611 1.36738 -12.8526 0.000391248 1 
1537 1 57.4412 3.504 -11.4299 0.00199663 1 
1538 1 54.5887 3.36999 -11.5437 0.00160139 1 
1539 1 55.8662 5.50054 -10.1303 0.0103567 1 
1540 1 55.9678 2.86376 -9.05297 0.00841457 1 
1541 1 57.2176 4.9789 -7.60416 0.0627871 1 
1542 1 54.3864 4.8495 -7.74416 0.0572174 1 
1543 1 55.631 7.00156 -6.41421 0.0788309 1 
1544 1 55.7076 4.37011 -5.14704 0.427835 1 
1545 1 56.9033 6.59266 -3.96612 5.92736 5 
1546 1 54.0352 6.50053 -4.0824 6.23242 5 
1547 1 56.8183 9.14494 -2.20447 7.4889 5 
1548 1 55.1936 6.62889 -1.68108 10.8702 5 
1549 1 53.3042 1.2307 -12.9594 0.000320481 1 
1550 1 54.689 0.723144 -10.496 0.00215079 1 
1551 1 51.831 0.584743 -10.6086 0.00167923 1 
1552 1 53.118 2.72724 -9.17921 0.00650557 1 
1553 1 53.2234 0.09192 -8.15429 0.0218216 1 
1554 1 54.5023 2.24812 -6.66425 0.0398334 1 
1555 1 51.6499 2.09777 -6.81514 0.0286112 1 
1556 1 52.9124 4.20129 -5.31355 0.471188 1 
1557 1 53.0608 1.65524 -4.26926 0.255289 1 
1558 1 54.1355 3.94987 -2.52656 7.35313 5 
1559 1 51.3941 3.637 -2.80932 3.2623 5 
1560 1 52.1982 6.85945 -1.82748 10.7351 5 
1561 1 60.7091 51.1698 -8.27212 0.0145704 1 
1562 1 50.2034 1.48725 -4.44225 0.159933 1 
1563 1 51.633 0.93961 -1.95466 0.877981 1 
1564 1 48.7608 0.821833 -2.09356 0.837014 1 
1573 1 82.8575 41.8106 -14.2761 0.000157596 1 
1574 1 82.9518 39.1494 -13.2237 0.000213626 1 
1575 1 81.3728 41.1381 -11.9094 0.000878306 1 
1576 1 82.671 43.2781 -10.5133 0.000862806 1 
1577 1 82.749 40.6149 -9.45744 0.00244497 1 
1578 1 81.1822 42.5929 -8.15887 0.00399377 1 
1579 1 82.5148 44.7301 -6.76883 0.0161408 1 
1580 1 82.5514 42.0569 -5.72227 0.0380615 1 
1581 1 81.0319 43.9573 -4.44172 5.53463 5 
1582 1 82.4105 45.9623 -3.07894 6.52159 5 
1583 1 83.4425 43.6513 -1.32364 9.72019 5 
1584 1 82.0201 46.021 -0.450354 7.60635 5 
1640 1 81.6728 37.009 -14.6287 8.79618e-05 1 
1641 1 78.814 36.8642 -14.7214 0.000112238 1 
1642 1 80.0901 39.0016 -13.3127 0.000313406 1 
1643 1 80.192 36.3415 -12.2651 0.000472579 1 
1644 1 81.4641 38.4784 -10.8571 0.00103095 1 
1645 1 78.5993 38.3298 -10.9417 0.00147369 1 
1646 1 79.8747 40.4567 -9.53768 0.00498375 1 
1647 1 79.9657 37.8037 -8.48412 0.00543135 1 
1648 1 81.2344 39.9284 -7.08871 0.0142089 1 
1649 1 78.3566 39.7601 -7.14527 0.0329441 1 
1650 1 79.6647 41.8819 -5.8119 0.039756 1 
1651 1 79.6987 39.2484 -4.68304 0.0979833 1 
1652 1 80.958 41.4202 -3.37947 5.1719 5 
1653 1 78.0833 41.2318 -3.43411 5.35238 5 
1654 1 80.6485 43.6179 -1.43533 9.63408 5 
1655 1 79.3083 40.944 -1.01831 9.86866 5 
1741 1 78.9185 34.2017 -13.6727 0.000273325 1 
1742 1 76.0585 34.0596 -13.7703 0.000438363 1 
1743 1 77.3318 36.1986 -12.3585 0.000677448 1 
1744 1 77.4439 33.5363 -11.3195 0.00203135 1 
1745 1 78.7095 35.6751 -9.90448 0.00286783 1 
1746 1 75.849 35.5374 -9.99693 0.00419479 1 
1747 1 77.102 37.6554 -8.55598 0.00803369 1 
1748 1 77.2284 35.0162 -7.54654 0.016377 1 
1749 1 78.4636 37.133 -6.08207 0.0308551 1 
1750 1 75.6129 36.9884 -6.12778 0.0323277 1 
1751 1 76.8394 39.0598 -4.66509 0.236465 1 
1752 1 76.9664 36.4741 -3.60389 0.529656 1 
1753 1 78.1431 38.5688 -2.07293 5.96477 5 
1754 1 75.2594 38.3746 -1.9647 7.87994 5 
1755 1 76.4404 40.9123 -1.08414 10.3025 5 
1839 1 74.8774 29.2501 -14.1202 0.000176148 1 
1840 1 76.1623 31.3924 -12.7207 0.000370408 1 
1841 1 73.2991 31.2516 -12.8182 0.000384269 1 
1842 1 74.5795 33.3981 -11.4208 0.00325239 1 
1843 1 74.6859 30.7221 -10.3716 0.00204728 1 
1844 1 75.9734 32.8752 -8.98864 0.0178171 1 
1845 1 73.0993 32.7428 -9.0926 0.0222842 1 
1846 1 74.3711 34.8879 -7.63785 0.021804 1 
1847 1 74.5087 32.2166 -6.71038 0.133471 1 
1848 1 75.7599 34.357 -5.19977 0.117275 1 
1849 1 72.907 34.2369 -5.29821 0.127115 1 
1850 1 74.1447 36.3185 -3.65186 0.508258 1 
1851 1 74.3385 33.5517 -2.93935 0.403059 1 
1852 1 75.703 35.4241 -1.22839 3.32218 5 
1853 1 72.8588 35.338 -1.31037 1.83101 5 
1929 1 72.0174 29.109 -14.2168 0.000189814 1 
1930 1 72.1107 26.4387 -13.1564 0.000449695 1 
1931 1 73.3958 28.5791 -11.7637 0.000664019 1 
1932 1 70.5343 28.4409 -11.8615 0.000689078 1 
1933 1 71.8151 30.5851 -10.4695 0.00183755 1 
1934 1 71.9079 27.9019 -9.41338 0.00240055 1 
1935 1 73.2045 30.0432 -8.03758 0.0111672 1 
1936 1 70.3188 29.9126 -8.12995 0.00921795 1 
1937 1 71.6111 32.0886 -6.80682 0.117168 1 