ITEM: TIMESTEP
0
ITEM: NUMBER OF ATOMS
8203
ITEM: BOX BOUNDS xy xz yz pp pp ss
0 175.126412702 44.141623509
0 35.005725588 0
-133.2562373788093 145.5505943101802 0
ITEM: ATOMS id type x y z c_csym c_cna 
28524 1 116.651 33.9812 -14.9882 0.00013169 1 
28582 1 118.777 30.5979 -14.3623 0.000199611 1 
28583 1 119.341 33.399 -14.2031 0.000185272 1 
28586 1 122.031 32.8156 -13.4196 0.000228824 1 
28587 1 124.219 33.9124 -14.9056 9.28449e-05 1 
28635 1 117.643 24.9834 -14.6802 9.79108e-05 1 
28636 1 118.21 27.7917 -14.5228 0.000151181 1 
28639 1 120.902 27.2104 -13.7407 0.000268512 1 
28640 1 121.468 30.0159 -13.5786 0.000260139 1 
28643 1 124.159 29.4334 -12.7965 0.000286032 1 
28644 1 124.72 32.2311 -12.6385 0.000281622 1 
28645 1 126.348 30.5293 -14.2781 8.57017e-05 1 
28646 1 126.909 33.3277 -14.1265 0.000133147 1 
28647 1 127.409 31.6447 -11.8598 0.000380673 1 
28648 1 127.968 34.4388 -11.7136 0.000582399 1 
28649 1 129.6 32.7416 -13.3481 0.000193918 1 
28650 1 130.659 33.8495 -10.9391 0.000861139 1 
28688 1 116.515 19.3755 -14.983 6.78195e-05 1 
28689 1 117.078 22.1774 -14.8327 0.000103433 1 
28692 1 119.77 21.5928 -14.054 0.000157809 1 
28693 1 120.335 24.4008 -13.9005 0.000161041 1 
28696 1 123.028 23.8188 -13.1209 0.000223051 1 
28697 1 123.594 26.6289 -12.9593 0.000327408 1 
28698 1 125.221 24.9245 -14.5932 9.13246e-05 1 
28699 1 125.785 27.7287 -14.4343 8.69076e-05 1 
28700 1 126.287 26.0467 -12.178 0.000339703 1 
28701 1 126.849 28.849 -12.0154 0.000316188 1 
28702 1 128.477 27.1449 -13.6528 0.000110963 1 
28703 1 129.039 29.9437 -13.4977 0.000114239 1 
28704 1 129.541 28.2631 -11.2325 0.000410648 1 
28705 1 130.099 31.0558 -11.0806 0.000496618 1 
28737 1 118.644 15.9911 -14.3544 8.51447e-05 1 
28738 1 119.207 18.7903 -14.2035 0.00012319 1 
28741 1 121.898 18.2052 -13.4246 0.000226281 1 
28742 1 122.462 21.0089 -13.2757 0.000224102 1 
28743 1 124.09 19.3109 -14.9064 7.23007e-05 1 
28744 1 124.655 22.1175 -14.7515 6.44046e-05 1 
28745 1 125.153 20.4264 -12.4991 0.0003063 1 
28746 1 125.72 23.2376 -12.3417 0.000263498 1 
28747 1 127.348 21.5352 -13.9729 0.000117542 1 
28748 1 127.914 24.3422 -13.8124 0.000151079 1 
28749 1 128.413 22.657 -11.5632 0.000472395 1 
28750 1 128.98 25.465 -11.3949 0.000660206 1 
28751 1 130.608 23.7597 -13.0304 0.000237728 1 
28773 1 117.518 10.3875 -14.6675 9.91803e-05 1 
28774 1 118.082 13.1913 -14.5094 9.12248e-05 1 
28777 1 120.773 12.6082 -13.7292 0.000136783 1 
28778 1 121.336 15.4067 -13.5744 0.000149365 1 
28781 1 124.026 14.8216 -12.797 0.00025537 1 
28782 1 124.588 17.6202 -12.6486 0.000415388 1 
28783 1 126.218 15.9231 -14.2825 0.000146274 1 
28784 1 126.782 18.7275 -14.1297 0.00012405 1 
28785 1 127.278 17.0346 -11.8767 0.000728738 1 
28786 1 127.844 19.8439 -11.7251 0.000529578 1 
28787 1 129.476 18.1441 -13.3532 0.00020812 1 
28788 1 130.042 20.9532 -13.1934 0.000220079 1 
28789 1 130.54 19.2623 -10.9505 0.00116346 1 
28801 1 116.389 4.77003 -14.9777 8.9187e-05 1 
28802 1 116.953 7.57962 -14.8249 9.32143e-05 1 
28805 1 119.646 6.99718 -14.0469 0.00018109 1 
28806 1 120.21 9.80539 -13.8881 0.000161569 1 
28809 1 122.902 9.22347 -13.1113 0.000256975 1 
28810 1 123.464 12.0247 -12.9514 0.000220402 1 
28811 1 125.094 10.3214 -14.5895 0.000111885 1 
28812 1 125.656 13.1223 -14.4347 0.000111468 1 
28813 1 126.156 11.44 -12.177 0.000419231 1 
28814 1 126.716 14.2352 -12.0236 0.000444712 1 
28815 1 128.35 12.5366 -13.6589 0.000184758 1 
28816 1 128.911 15.3377 -13.5073 0.000247452 1 
28817 1 129.41 13.6466 -11.2519 0.000741423 1 
28818 1 129.971 16.4474 -11.1068 0.00136312 1 
28824 1 118.521 1.37581 -14.3459 0.000190704 1 
28825 1 119.082 4.18542 -14.2004 0.000156376 1 
28828 1 121.775 3.60119 -13.4249 0.000259739 1 
28829 1 122.339 6.41494 -13.2715 0.000290524 1 
28830 1 123.968 4.70796 -14.9004 0.000140551 1 
28831 1 124.532 7.51689 -14.746 0.000133491 1 
28832 1 125.033 5.8324 -12.4991 0.000482612 1 
28833 1 125.596 8.64067 -12.3376 0.000478355 1 
28834 1 127.228 6.93292 -13.969 0.000233637 1 
28835 1 127.789 9.73649 -13.8128 0.000186103 1 
28836 1 128.294 8.05647 -11.5625 0.000867159 1 
28837 1 128.852 10.8531 -11.4027 0.000688113 1 
28838 1 130.488 9.14951 -13.0317 0.000229111 1 
28840 1 121.213 0.788963 -13.5678 0.000339219 1 
28842 1 123.904 0.202535 -12.7925 0.000634259 1 
28843 1 124.468 3.01724 -12.6526 0.000457003 1 
28844 1 126.099 1.31227 -14.2725 0.000314911 1 
28845 1 126.665 4.12408 -14.1237 0.000270408 1 
28846 1 127.166 2.43357 -11.8809 0.0011956 1 
28847 1 127.732 5.24975 -11.7252 0.00114921 1 
28848 1 129.365 3.54052 -13.3405 0.000342662 1 
28849 1 129.928 6.34749 -13.1857 0.000285497 1 
28850 1 130.439 4.66545 -10.9343 0.0015727 1 
28851 1 170.739 34.6227 -12.0207 0.00125868 1 
28852 1 128.798 0.729444 -13.492 0.000395683 1 
28853 1 129.872 1.85372 -11.0943 0.00189826 1 
29613 1 103.623 30.7082 -14.543 0.000263052 1 
29614 1 104.186 33.5136 -14.399 0.000216299 1 
29616 1 106.879 32.9319 -13.6167 0.000333497 1 
29665 1 102.5 25.1114 -14.8346 0.000131633 1 
29666 1 103.061 27.9085 -14.6866 0.000186732 1 
29669 1 105.75 27.3233 -13.904 0.000322807 1 
29670 1 106.312 30.1239 -13.7622 0.000454688 1 
29673 1 109.004 29.5417 -12.9824 0.000584757 1 
29674 1 109.573 32.3529 -12.8325 0.00047452 1 
29675 1 111.199 30.6535 -14.4574 0.000160135 1 
29676 1 111.768 33.4611 -14.3003 0.000258988 1 
29677 1 112.267 31.7766 -12.0469 0.000680406 1 
29678 1 112.84 34.5867 -11.8805 0.00114357 1 
29679 1 114.461 32.8825 -13.5127 0.000466618 1 
29680 1 115.534 34.0102 -11.0865 0.00209263 1 
29719 1 101.937 22.313 -14.9883 0.000132167 1 
29722 1 104.627 21.7308 -14.2033 0.000185874 1 
29723 1 105.189 24.5274 -14.0501 0.000206294 1 
29726 1 107.878 23.9427 -13.2681 0.000298956 1 
29727 1 108.439 26.7385 -13.124 0.000504556 1 
29728 1 110.067 25.0434 -14.7573 0.000154745 1 
29729 1 110.632 27.8462 -14.6093 0.000172093 1 
29730 1 111.128 26.1552 -12.3474 0.00072495 1 
29731 1 111.695 28.9626 -12.2034 0.00064741 1 
29732 1 113.323 27.2652 -13.8302 0.000219962 1 
29733 1 113.892 30.0746 -13.6746 0.000255215 1 
29734 1 114.388 28.3847 -11.4259 0.0008302 1 
29735 1 114.962 31.2011 -11.2617 0.000959011 1 
29736 1 116.585 29.4956 -12.8915 0.000443619 1 
29737 1 117.153 32.3028 -12.7258 0.00059346 1 
29738 1 117.656 30.6245 -10.4738 0.00176294 1 
29739 1 118.224 33.4296 -10.2947 0.00212456 1 
29740 1 119.844 31.7219 -11.9396 0.000706159 1 
29741 1 120.406 34.5179 -11.7764 0.000696829 1 
29742 1 120.911 32.8476 -9.5049 0.00229 1 
29743 1 123.093 33.9321 -10.9926 0.000921953 1 
29775 1 103.496 16.1231 -14.5228 0.000151997 1 
29776 1 104.062 18.9295 -14.3624 0.00020069 1 
29779 1 106.753 18.3478 -13.579 0.000261392 1 
29780 1 107.316 21.1475 -13.42 0.000229548 1 
29782 1 109.505 22.2444 -14.9062 9.3001e-05 1 
29783 1 110.005 20.5633 -12.6392 0.00028317 1 
29784 1 110.566 23.3575 -12.4895 0.000411105 1 
29785 1 112.195 21.6599 -14.1274 0.000133267 1 
29786 1 112.757 24.4599 -13.9793 0.000225673 1 
29787 1 113.254 22.7712 -11.7144 0.000583652 1 
29788 1 113.818 25.5721 -11.5743 0.00104261 1 
29789 1 115.448 23.8754 -13.2026 0.000336717 1 
29790 1 116.015 26.6838 -13.0516 0.000323779 1 
29791 1 116.509 24.9857 -10.8023 0.00185981 1 
29792 1 117.081 27.8064 -10.6482 0.00164622 1 
29793 1 118.708 26.1022 -12.2728 0.000512456 1 
29794 1 119.277 28.9156 -12.1084 0.000635678 1 
29795 1 119.776 27.2271 -9.86772 0.00281282 1 
29796 1 120.348 30.0456 -9.68738 0.00219215 1 
29797 1 121.971 28.3364 -11.3228 0.00127755 1 
29798 1 122.534 31.1393 -11.1532 0.000915805 1 
29799 1 123.042 29.4693 -8.8908 0.0057616 1 
29800 1 123.598 32.2618 -8.71404 0.00431228 1 
29801 1 125.222 30.5557 -10.3704 0.00105557 1 
29802 1 125.779 33.344 -10.2136 0.00119159 1 
29803 1 126.28 31.6719 -7.9288 0.00575022 1 
29804 1 126.83 34.4452 -7.78931 0.00586454 1 
29805 1 128.465 32.7528 -9.44027 0.00159832 1 
29806 1 129.516 33.8502 -7.03302 0.00755968 1 
29828 1 102.364 10.5081 -14.8316 0.000102363 1 
29829 1 102.929 13.3145 -14.6797 9.84978e-05 1 
29832 1 105.621 12.7319 -13.9 0.000163787 1 
29833 1 106.188 15.542 -13.7408 0.000270268 1 
29836 1 108.879 14.9608 -12.9599 0.000330374 1 
29837 1 109.444 17.7655 -12.7973 0.000286522 1 
29838 1 111.07 16.0607 -14.4354 8.61448e-05 1 
29839 1 111.633 18.8614 -14.2792 8.55922e-05 1 
29840 1 112.135 17.1816 -12.0168 0.000315375 1 
29841 1 112.694 19.9773 -11.8609 0.000382217 1 
29842 1 114.324 18.2764 -13.4995 0.000115458 1 
29843 1 114.885 21.0741 -13.3495 0.000195502 1 
29844 1 115.385 19.3887 -11.0822 0.000507332 1 
29845 1 115.945 22.1821 -10.9402 0.000870927 1 
29846 1 117.577 20.4871 -12.5716 0.000335383 1 
29847 1 118.14 23.29 -12.4264 0.000522984 1 
29848 1 118.637 21.5919 -10.1663 0.00148691 1 
29849 1 119.203 24.4003 -10.0305 0.0025735 1 
29850 1 120.833 22.7052 -11.6495 0.000791535 1 
29851 1 121.401 25.522 -11.4926 0.000959267 1 
29852 1 121.898 23.8192 -9.25665 0.00382513 1 
29853 1 122.472 26.654 -9.08333 0.00560625 1 
29854 1 124.095 24.9424 -10.7122 0.00105784 1 
29855 1 124.662 27.7561 -10.5405 0.00138424 1 
29856 1 125.168 26.0764 -8.3016 0.00439064 1 
29857 1 125.73 28.8883 -8.10818 0.00599097 1 
29858 1 127.354 27.1715 -9.75682 0.00130804 1 
29859 1 127.91 29.9678 -9.59074 0.00148607 1 
29860 1 128.414 28.3001 -7.32418 0.00795028 1 
29861 1 128.959 31.0747 -7.1569 0.00671593 1 
29862 1 130.601 29.3767 -8.80581 0.00204215 1 
29875 1 101.802 7.70581 -14.981 6.66481e-05 1 
29878 1 104.494 7.12025 -14.2007 0.000121177 1 
29879 1 105.056 9.92338 -14.0526 0.000158036 1 
29882 1 107.747 9.33935 -13.2742 0.000230164 1 
29883 1 108.313 12.1501 -13.1208 0.000229379 1 
29884 1 109.94 10.4479 -14.751 7.12793e-05 1 
29885 1 110.505 13.2559 -14.5939 9.38882e-05 1 
29886 1 111.005 11.5693 -12.3423 0.000275131 1 
29887 1 111.572 14.3791 -12.1793 0.000341027 1 
29888 1 113.198 12.674 -13.8141 0.000153667 1 
29889 1 113.762 15.4773 -13.6548 0.000111207 1 
29890 1 114.264 13.7981 -11.3974 0.000665469 1 
29891 1 114.826 16.5963 -11.2347 0.000420857 1 
29892 1 116.454 14.8939 -12.8734 0.000179894 1 
29893 1 117.016 17.6905 -12.719 0.000195084 1 
29894 1 117.519 16.0113 -10.4506 0.000647771 1 
29895 1 118.077 18.7992 -10.3016 0.000822424 1 
29896 1 119.708 17.1045 -11.9371 0.000429287 1 
29897 1 120.268 19.9 -11.7929 0.00063656 1 
29898 1 120.77 18.2106 -9.51716 0.00234233 1 
29899 1 121.329 21.0033 -9.39047 0.00343404 1 
29900 1 122.959 19.314 -11.016 0.00124865 1 
29901 1 123.525 22.1238 -10.8724 0.000916183 1 
29902 1 124.018 20.421 -8.62142 0.00626294 1 
29903 1 124.594 23.2464 -8.47541 0.00419573 1 
29904 1 126.217 21.5453 -10.0965 0.0011854 1 
29905 1 126.788 24.3625 -9.92997 0.000903271 1 
29906 1 127.286 22.6743 -7.69174 0.0107826 1 
29907 1 127.862 25.4913 -7.5058 0.00387451 1 
29908 1 129.48 23.785 -9.1502 0.00184247 1 
29909 1 130.046 26.5907 -8.96545 0.00285104 1 
29910 1 130.54 24.9164 -6.71954 0.00264166 1 
29916 1 103.371 1.52078 -14.5033 9.77297e-05 1 
29917 1 103.933 4.32064 -14.35 8.51533e-05 1 
29920 1 106.624 3.73535 -13.5679 0.000145692 1 
29921 1 107.185 6.53464 -13.4209 0.00022729 1 
29923 1 109.376 7.64019 -14.9037 8.11103e-05 1 
29924 1 109.874 5.94905 -12.6442 0.000429747 1 
29925 1 110.438 8.75687 -12.4979 0.000322437 1 
29926 1 112.067 7.05628 -14.127 0.000140476 1 
29927 1 112.632 9.86576 -13.9732 0.000126494 1 
29928 1 113.129 8.17464 -11.7248 0.000550419 1 
29929 1 113.697 10.9894 -11.5651 0.000481927 1 
29930 1 115.325 9.28401 -13.1954 0.000221001 1 
29931 1 115.891 12.0922 -13.034 0.000233949 1 
29932 1 116.392 10.4101 -10.7858 0.000804701 1 
29933 1 116.957 13.217 -10.6144 0.0008326 1 
29934 1 118.584 11.5108 -12.2523 0.00034186 1 
29935 1 119.147 14.3108 -12.09 0.000375226 1 
29936 1 119.65 12.6361 -9.82837 0.000813761 1 
29937 1 120.212 15.4285 -9.6607 0.00186132 1 
29938 1 121.837 13.7267 -11.3079 0.000559543 1 
29939 1 122.397 16.518 -11.1563 0.000733606 1 
29940 1 122.897 14.8385 -8.875 0.00270681 1 
29941 1 123.455 17.6208 -8.73821 0.00389465 1 
29942 1 125.084 15.9299 -10.3823 0.00109531 1 
29943 1 125.647 18.7293 -10.2461 0.00211192 1 
29944 1 126.139 17.0316 -7.978 0.00373471 1 
29945 1 126.706 19.8375 -7.86217 0.0101372 1 
29946 1 128.337 18.1416 -9.48267 0.00370613 1 
29947 1 128.908 20.9653 -9.32657 0.00303428 1 
29948 1 129.402 19.244 -7.11614 0.022685 1 
29949 1 129.974 22.1042 -6.92973 0.0286281 1 
29951 1 106.064 0.936656 -13.7196 0.000142739 1 
29953 1 108.756 0.351537 -12.9367 0.00019221 1 
29954 1 109.314 3.14893 -12.7878 0.000248576 1 
29955 1 110.945 1.44826 -14.4214 9.88341e-05 1 
29956 1 111.504 4.25001 -14.2749 0.000159454 1 
29957 1 112.004 2.56064 -12.0112 0.000442475 1 
29958 1 112.564 5.36283 -11.8718 0.000759861 1 
29959 1 114.196 3.66328 -13.4988 0.000290159 1 
29960 1 114.759 6.47238 -13.3514 0.000231878 1 
29961 1 115.256 4.77522 -11.1024 0.0013964 1 
29962 1 115.823 7.59343 -10.952 0.00111908 1 
29963 1 117.453 5.88909 -12.5754 0.00038426 1 
29964 1 118.019 8.70291 -12.4165 0.000364523 1 
29965 1 118.52 7.01392 -10.1752 0.00232746 1 
29966 1 119.087 9.83142 -10.0029 0.00114073 1 
29967 1 120.712 8.12331 -11.6372 0.000797716 1 
29968 1 121.276 10.9296 -11.4702 0.000558993 1 
29969 1 121.782 9.25619 -9.21611 0.00349356 1 
29970 1 122.341 12.0539 -9.0399 0.00267825 1 
29971 1 123.966 10.3481 -10.6931 0.000967817 1 
29972 1 124.525 13.1401 -10.5302 0.000920404 1 
29973 1 125.027 11.4672 -8.2568 0.0051426 1 
29974 1 125.577 14.2424 -8.10338 0.00484452 1 
29975 1 127.214 12.5513 -9.76005 0.00146963 1 
29976 1 127.772 15.3398 -9.61665 0.00149305 1 
29977 1 128.264 13.6461 -7.34602 0.00517394 1 
29978 1 128.83 16.4332 -7.22378 0.0050892 1 
29979 1 130.466 14.7443 -8.85281 0.00324427 1 
29980 1 155.589 34.7702 -12.1555 0.000308438 1 
29981 1 113.637 0.860602 -13.6419 0.000187038 1 
29982 1 114.696 1.96989 -11.2368 0.000769664 1 
29983 1 116.33 0.271407 -12.8616 0.000345643 1 
29984 1 116.889 3.07589 -12.723 0.000476022 1 
29985 1 117.39 1.37835 -10.461 0.00118499 1 
29986 1 117.952 4.18826 -10.3322 0.00206098 1 
29987 1 119.583 2.48926 -11.9472 0.000726836 1 
29988 1 120.146 5.30696 -11.8 0.00066816 1 
29989 1 120.649 3.60534 -9.56024 0.00262362 1 
29990 1 121.215 6.43601 -9.39964 0.00345539 1 
29991 1 122.84 4.72549 -11.0286 0.00082503 1 
29992 1 123.404 7.54353 -10.864 0.00115396 1 
29993 1 123.909 5.85801 -8.63311 0.00294141 1 
29994 1 124.469 8.67755 -8.44477 0.00531961 1 
29995 1 126.098 6.96222 -10.0968 0.00181594 1 
29996 1 126.657 9.7643 -9.92292 0.00199955 1 
29997 1 127.158 8.0975 -7.68485 0.0112582 1 
29998 1 127.711 10.8767 -7.49395 0.0066254 1 
29999 1 129.357 9.17835 -9.14971 0.00345933 1 
30000 1 129.911 11.9588 -8.99003 0.00218805 1 
30001 1 130.418 10.2836 -6.72217 0.00842798 1 
30002 1 163.165 34.688 -12.0805 0.000576331 1 
30003 1 120.085 0.790198 -9.68344 0.0020039 1 
30004 1 122.275 1.90476 -11.1739 0.000977558 1 
30005 1 122.774 0.206318 -8.91313 0.00345789 1 
30006 1 123.344 3.02834 -8.79056 0.00243656 1 
30007 1 124.967 1.32148 -10.4068 0.00143037 1 
30008 1 125.534 4.14366 -10.2632 0.00116564 1 
30009 1 126.035 2.45048 -8.03284 0.00311182 1 
30010 1 126.602 5.27713 -7.87715 0.00376887 1 
30011 1 128.236 3.56301 -9.49935 0.00681833 1 
30012 1 128.8 6.38186 -9.32541 0.00488764 1 
30013 1 129.306 4.70546 -7.12388 0.0416799 1 
30014 1 129.867 7.51982 -6.91539 0.0237114 1 
30015 1 169.604 34.6281 -8.15698 0.00510209 1 
30016 1 127.663 0.735878 -9.64629 0.00483163 1 
30017 1 128.733 1.86044 -7.30299 0.0383834 1 
30018 1 130.375 0.15697 -8.86871 0.0057872 1 
30642 1 88.4739 30.8517 -14.724 8.76196e-05 1 
30643 1 89.0349 33.6538 -14.5703 7.23969e-05 1 
30645 1 91.7281 33.0671 -13.7871 0.000126726 1 
30696 1 87.9105 28.0459 -14.8795 0.00010147 1 
30699 1 90.6054 27.4631 -14.0946 0.000165655 1 
30700 1 91.1683 30.2671 -13.9391 0.000132859 1 
30703 1 93.8636 29.682 -13.151 0.000233482 1 
30704 1 94.4222 32.4791 -13.0017 0.000244105 1 
30705 1 96.0518 30.7787 -14.6294 0.000112468 1 
30706 1 96.6116 33.5784 -14.4839 0.00015119 1 
30707 1 97.1156 31.8904 -12.2136 0.000435902 1 
30708 1 99.3037 32.9911 -13.6994 0.000300766 1 
30709 1 100.364 34.0999 -11.2945 0.00125969 1 
30752 1 89.4729 21.8451 -14.3992 0.000216743 1 
30753 1 90.0392 24.6547 -14.2495 0.000170396 1 
30756 1 92.7344 24.0742 -13.4635 0.0003318 1 
30757 1 93.3014 26.8809 -13.3062 0.000296449 1 
30758 1 94.9272 25.1775 -14.9326 0.000131745 1 
30759 1 95.4909 27.9794 -14.7791 0.000109697 1 
30760 1 95.9973 26.2996 -12.514 0.000460972 1 
30761 1 96.5582 29.0967 -12.3593 0.000403695 1 
30762 1 98.1842 27.3954 -13.9893 0.000205902 1 
30763 1 98.7441 30.1923 -13.8417 0.000227839 1 
30764 1 99.2502 28.5105 -11.5648 0.00080532 1 
30765 1 99.806 31.3009 -11.4241 0.000931091 1 
30766 1 101.434 29.6053 -13.0546 0.000439148 1 
30767 1 101.993 32.4043 -12.9167 0.00060586 1 
30768 1 102.491 30.7104 -10.6395 0.00180546 1 
30769 1 103.052 33.5132 -10.5181 0.00284818 1 
30770 1 104.682 31.8188 -12.1384 0.00117671 1 
30771 1 105.74 32.9295 -9.75041 0.00534397 1 
30772 1 107.946 34.0544 -11.2149 0.0016276 1 
30804 1 88.3477 16.2396 -14.6868 0.000185845 1 
30805 1 88.909 19.0395 -14.5433 0.000263407 1 
30808 1 91.5989 18.4552 -13.7624 0.000455094 1 
30809 1 92.1653 21.2635 -13.6169 0.000333619 1 
30812 1 94.8592 20.6845 -12.8325 0.000475036 1 
30813 1 95.4302 23.4953 -12.674 0.000527074 1 
30814 1 97.0544 21.7927 -14.3004 0.00025906 1 
30815 1 97.6212 24.5963 -14.1429 0.000237718 1 
30816 1 98.1261 22.9184 -11.8805 0.00114535 1 
30817 1 98.6917 25.7182 -11.7179 0.000873667 1 
30818 1 100.314 24.0153 -13.3526 0.000359258 1 
30819 1 100.875 26.811 -13.1993 0.000354332 1 
30820 1 101.382 25.1359 -10.9209 0.00136499 1 
30821 1 101.937 27.9218 -10.7711 0.00142589 1 
30822 1 103.563 26.2254 -12.4116 0.000553689 1 
30823 1 104.121 29.0176 -12.2713 0.000852692 1 
30824 1 104.621 27.3306 -9.98424 0.00237668 1 
30825 1 105.175 30.1213 -9.86625 0.00290481 1 
30826 1 106.808 28.4305 -11.4931 0.00147689 1 
30827 1 107.373 31.2352 -11.3629 0.00208338 1 
30828 1 107.863 29.5322 -9.09907 0.00646606 1 
30829 1 108.436 32.3504 -8.98463 0.00984484 1 
30830 1 110.068 30.6573 -10.5845 0.00212298 1 
30831 1 110.644 33.4798 -10.4249 0.00228179 1 
30832 1 111.14 31.7813 -8.19582 0.00669494 1 
30833 1 111.725 34.6221 -8.01142 0.0102462 1 
30834 1 113.342 32.9081 -9.6326 0.00241102 1 
30835 1 114.427 34.0464 -7.20124 0.00631162 1 
30857 1 87.2233 10.6439 -14.9882 0.000131147 1 
30858 1 87.7864 13.4424 -14.8346 0.000130526 1 
30861 1 90.4757 12.8584 -14.05 0.000204753 1 
30862 1 91.0366 15.6544 -13.904 0.0003221 1 
30865 1 93.7253 15.0697 -13.1239 0.000502531 1 
30866 1 94.2898 17.8731 -12.9824 0.000585053 1 
30867 1 95.9184 16.1775 -14.6092 0.000172716 1 
30868 1 96.4856 18.985 -14.4574 0.000160726 1 
30869 1 96.9815 17.294 -12.2034 0.000648528 1 
30870 1 97.5535 20.1083 -12.047 0.000682039 1 
30871 1 99.1779 18.4061 -13.6745 0.000255978 1 
30872 1 99.7474 21.2142 -13.5127 0.000468018 1 
30873 1 100.247 19.5328 -11.2618 0.000962024 1 
30874 1 100.82 22.3421 -11.0865 0.00209709 1 
30875 1 102.439 20.6346 -12.7259 0.000595287 1 
30876 1 103.004 23.4332 -12.5637 0.000467363 1 
30877 1 103.509 21.7615 -10.2949 0.00212933 1 
30878 1 104.068 24.5506 -10.1282 0.00179012 1 
30879 1 105.692 22.8498 -11.7766 0.000700013 1 
30880 1 106.25 25.6384 -11.6274 0.000886196 1 
30881 1 106.754 23.9631 -9.33759 0.00235278 1 
30882 1 107.305 26.7403 -9.20668 0.00337341 1 
30883 1 108.937 25.0509 -10.8478 0.00134194 1 
30884 1 109.497 27.8461 -10.7188 0.00217463 1 
30885 1 109.992 26.1521 -8.43752 0.00519799 1 
30886 1 110.558 28.9547 -8.33404 0.00857496 1 
30887 1 112.188 27.266 -9.949 0.00284427 1 
30888 1 112.763 30.0852 -9.80435 0.0019214 1 
30889 1 113.253 28.382 -7.57091 0.0103117 1 
30890 1 113.842 31.2201 -7.40442 0.00769093 1 
30891 1 115.457 29.5131 -9.02654 0.00386492 1 
30892 1 116.037 32.3355 -8.84114 0.0029586 1 
30893 1 116.533 30.6614 -6.61958 0.0363108 1 
30894 1 117.112 33.4711 -6.39499 0.00764039 1 
30895 1 118.731 31.7597 -8.03865 0.00587165 1 
30896 1 119.289 34.5563 -7.84282 0.00880466 1 
30897 1 119.804 32.9024 -5.57447 0.0405548 1 
30898 1 121.972 33.9643 -7.04562 0.00678718 1 
30914 1 89.349 7.26039 -14.362 0.000201192 1 
30915 1 89.9137 10.0617 -14.2031 0.000184794 1 
30918 1 92.6031 9.4784 -13.4196 0.000228846 1 
30919 1 93.1641 12.2738 -13.2678 0.000296621 1 
30920 1 94.7914 10.5753 -14.9057 9.25055e-05 1 
30921 1 95.3539 13.3745 -14.7569 0.000153732 1 
30922 1 95.852 11.6885 -12.489 0.000409608 1 
30923 1 96.4141 14.4864 -12.3472 0.000722642 1 
30924 1 98.0437 12.7909 -13.9789 0.000224452 1 
30925 1 98.6093 15.5964 -13.83 0.000220234 1 
30926 1 99.1037 13.9033 -11.574 0.0010392 1 
30927 1 99.6736 16.7162 -11.4259 0.000831383 1 
30928 1 101.301 15.0151 -13.0514 0.000324531 1 
30929 1 101.871 17.8272 -12.8915 0.000445375 1 
30930 1 102.367 16.1381 -10.6482 0.00164935 1 
30931 1 102.942 18.9564 -10.474 0.00176811 1 
30932 1 104.563 17.2474 -12.1085 0.000637196 1 
30933 1 105.13 20.0538 -11.9399 0.000707928 1 
30934 1 105.633 18.3777 -9.6877 0.0021928 1 
30935 1 106.197 21.1798 -9.50521 0.00230394 1 
30936 1 107.82 19.4714 -11.1537 0.000919348 1 
30937 1 108.379 22.2643 -10.993 0.000927065 1 
30938 1 108.884 20.5942 -8.71457 0.00434167 1 
30939 1 109.436 23.3697 -8.55568 0.00337524 1 
30940 1 111.064 21.6764 -10.2143 0.00119507 1 
30941 1 111.623 24.4645 -10.076 0.00166924 1 
30942 1 112.116 22.7776 -7.78985 0.00586775 1 
30943 1 112.68 25.5703 -7.67952 0.00445373 1 
30944 1 114.311 23.8768 -9.31029 0.00190909 1 
30945 1 114.879 26.6835 -9.18417 0.0046528 1 
30946 1 115.37 24.9783 -6.92461 0.00479367 1 
30947 1 115.945 27.7948 -6.82222 0.0301276 1 
30948 1 117.572 26.0969 -8.4236 0.00899426 1 
30949 1 118.152 28.9406 -8.24253 0.01113 1 
30950 1 118.647 27.207 -6.0706 0.0454135 1 
30951 1 119.216 30.0926 -5.80293 0.10402 1 
30952 1 120.846 28.3671 -7.45738 0.0183701 1 
30953 1 121.415 31.1809 -7.24993 0.0110178 1 
30954 1 121.931 29.5184 -5.04418 0.125022 1 
30955 1 122.486 32.2853 -4.75874 0.0664787 1 
30956 1 124.117 30.6096 -6.43013 0.047547 1 
30957 1 124.654 33.3606 -6.24267 0.0230562 1 
30958 1 125.145 31.7112 -3.8402 0.260564 1 
30959 1 125.68 34.4537 -3.78536 0.210118 1 
30960 1 127.311 32.767 -5.46787 0.0331408 1 
30961 1 128.371 33.8723 -3.08691 0.202835 1 
30967 1 88.2156 1.64548 -14.6793 0.00010073 1 
30968 1 88.7823 4.454 -14.5223 0.000153713 1 
30971 1 91.4745 3.8728 -13.7401 0.000272642 1 
30972 1 92.0402 6.67858 -13.5784 0.000262734 1 
30975 1 94.7307 6.09629 -12.7964 0.000290737 1 
30976 1 95.2918 8.89417 -12.6385 0.000283061 1 
30977 1 96.9196 7.1921 -14.278 8.67535e-05 1 
30978 1 97.4811 9.99073 -14.1266 0.000132712 1 
30979 1 97.9809 8.30811 -11.8599 0.000383801 1 
30980 1 98.5405 11.1022 -11.7138 0.000580638 1 
30981 1 100.172 9.40489 -13.3483 0.000193032 1 
30982 1 100.734 12.2064 -13.202 0.000333923 1 
30983 1 101.231 10.5132 -10.9394 0.000859606 1 
30984 1 101.795 13.3172 -10.8019 0.00185494 1 
30985 1 103.426 11.6211 -12.4257 0.000519617 1 
30986 1 103.993 14.4337 -12.2726 0.000513292 1 
30987 1 104.488 12.732 -10.0302 0.00256804 1 
30988 1 105.061 15.5591 -9.86783 0.00281074 1 
30989 1 106.687 13.8538 -11.4926 0.000964774 1 
30990 1 107.256 16.6685 -11.3232 0.00128388 1 
30991 1 107.757 14.9865 -9.08375 0.00562428 1 
30992 1 108.328 17.8018 -8.89137 0.005774 1 
30993 1 109.947 16.0887 -10.5414 0.00138685 1 
30994 1 110.508 18.8883 -10.3713 0.00106014 1 
30995 1 111.015 17.2214 -8.10915 0.00599136 1 
30996 1 111.566 20.0047 -7.92959 0.00576923 1 
30997 1 113.196 18.3008 -9.5921 0.00149046 1 
30998 1 113.751 21.0855 -9.44127 0.00160249 1 
30999 1 114.245 19.4079 -7.15799 0.00671174 1 
31000 1 114.803 22.1828 -7.03375 0.00757199 1 
31001 1 116.443 20.49 -8.66557 0.00226558 1 
31002 1 117.002 23.2782 -8.54187 0.00551387 1 
31003 1 117.502 21.5616 -6.25207 0.0329318 1 
31004 1 118.064 24.3777 -6.1875 0.0160478 1 
31005 1 119.696 22.6893 -7.77731 0.00644362 1 
31006 1 120.273 25.5104 -7.6522 0.0107475 1 
31007 1 120.765 23.7791 -5.41208 0.0443898 1 
31008 1 121.359 26.6308 -5.30122 0.0392788 1 
31009 1 122.973 24.9515 -6.88079 0.0179482 1 
31010 1 123.554 27.797 -6.65646 0.024138 1 
31011 1 124.07 26.0935 -4.47697 0.0489284 1 
31012 1 124.635 28.9618 -4.1977 0.212834 1 
31013 1 126.241 27.219 -5.87229 0.0149553 1 
31014 1 126.783 30.0178 -5.63386 0.0390694 1 
31015 1 127.318 28.3461 -3.38025 0.136673 1 
31016 1 127.769 31.1227 -3.11499 0.290701 1 
31017 1 129.452 29.4027 -4.86525 0.059571 1 
31018 1 129.994 32.1708 -4.75052 0.0686163 1 
31019 1 130.538 30.4758 -2.52915 0.951237 5 
31021 1 90.9077 1.06282 -13.8993 0.000166936 1 
31023 1 93.5998 0.480908 -13.1198 0.000233982 1 
31024 1 94.1664 3.29151 -12.9589 0.000335317 1 
31025 1 95.793 1.58661 -14.5922 9.76945e-05 1 
31026 1 96.3572 4.39129 -14.4338 8.98299e-05 1 
31027 1 96.8589 2.70965 -12.1777 0.000350003 1 
31028 1 97.4216 5.51227 -12.0155 0.000322466 1 
31029 1 99.0496 3.80772 -13.6525 0.000116515 1 
31030 1 99.611 6.60686 -13.4977 0.000115886 1 
31031 1 100.114 4.92682 -11.2327 0.000423286 1 
31032 1 100.672 7.71955 -11.0809 0.000502941 1 
31033 1 102.303 6.02074 -12.7164 0.000192405 1 
31034 1 102.863 8.81782 -12.5701 0.000328763 1 
31035 1 103.364 7.13007 -10.2997 0.000808539 1 
31036 1 103.923 9.92328 -10.1653 0.00147067 1 
31037 1 105.555 8.23065 -11.791 0.000623264 1 
31038 1 106.118 11.0365 -11.6488 0.000789721 1 
31039 1 106.615 9.33512 -9.38952 0.00337469 1 
31040 1 107.184 12.1515 -9.25656 0.00382351 1 
31041 1 108.811 10.4556 -10.8721 0.000922154 1 
31042 1 109.38 13.2747 -10.7127 0.00106388 1 
31043 1 109.879 11.5796 -8.47601 0.00414725 1 
31044 1 110.454 14.4098 -8.30258 0.0044099 1 
31045 1 112.073 12.6957 -9.93147 0.000916505 1 
31046 1 112.639 15.5048 -9.75845 0.00129706 1 
31047 1 113.147 13.8258 -7.50775 0.00376285 1 
31048 1 113.7 16.6339 -7.32569 0.00795345 1 
31049 1 115.331 14.9248 -8.96811 0.00287216 1 
31050 1 115.887 17.7102 -8.80777 0.00208591 1 
31051 1 116.395 16.0555 -6.51726 0.0226616 1 
31052 1 116.942 18.8078 -6.37293 0.0116895 1 
31053 1 118.581 17.1224 -8.01936 0.00290066 1 
31054 1 119.137 19.897 -7.88708 0.0033975 1 
31055 1 119.635 18.2221 -5.57948 0.0191381 1 
31056 1 120.203 20.9884 -5.48715 0.0099313 1 
31057 1 121.828 19.308 -7.09812 0.0120529 1 
31058 1 122.388 22.1046 -7.01276 0.0236907 1 
31059 1 122.889 20.4184 -4.70355 0.138692 1 
31060 1 123.451 23.2561 -4.70675 0.171255 1 
31061 1 125.077 21.5316 -6.25441 0.0386406 1 
31062 1 125.679 24.3952 -6.07889 0.0355368 1 
31063 1 126.162 22.6353 -3.94757 0.23264 1 
31064 1 126.741 25.5763 -3.62158 0.361133 1 
31065 1 128.355 23.8066 -5.24064 0.128752 1 
31066 1 128.916 26.6388 -5.07328 0.0330031 1 
31067 1 129.429 25.0251 -2.82807 0.871754 1 
31068 1 129.989 27.7071 -2.52666 0.325229 1 
31069 1 140.434 34.9058 -12.3407 0.000282712 1 
31070 1 98.4859 1.00452 -13.8115 0.000163776 1 
31071 1 99.5524 2.12856 -11.3949 0.000685655 1 
31072 1 101.18 0.42237 -13.0295 0.000258126 1 
31073 1 101.743 3.22388 -12.8698 0.000188708 1 
31074 1 102.246 1.5471 -10.6103 0.000893839 1 
31075 1 102.806 4.34166 -10.4475 0.000652455 1 
31076 1 104.436 2.64019 -12.0841 0.000376664 1 
31077 1 104.995 5.43435 -11.9334 0.00041873 1 
31078 1 105.5 3.75844 -9.65594 0.00180653 1 
31079 1 106.057 6.54163 -9.51472 0.00228266 1 
31080 1 107.685 4.84728 -11.151 0.000720012 1 
31081 1 108.245 7.6447 -11.0138 0.00123534 1 
31082 1 108.742 5.95224 -8.73537 0.00379446 1 
31083 1 109.304 8.75378 -8.62083 0.00616594 1 
31084 1 110.932 7.06033 -10.2442 0.00210364 1 
31085 1 111.502 9.87782 -10.0971 0.00119704 1 
31086 1 111.992 8.17204 -7.86271 0.00998991 1 
31087 1 112.572 11.009 -7.69355 0.0105191 1 
31088 1 114.193 9.29912 -9.32874 0.00295391 1 
31089 1 114.765 12.1193 -9.15309 0.00181187 1 
31090 1 115.26 10.4404 -6.93268 0.0274435 1 
31091 1 115.826 13.252 -6.72257 0.00250003 1 
31092 1 117.461 11.5427 -8.36685 0.00231273 1 
31093 1 118.019 14.3436 -8.18285 0.00255441 1 
31094 1 118.523 12.6887 -5.93381 0.00934592 1 
31095 1 119.082 15.4669 -5.73647 0.0116363 1 
31096 1 120.713 13.7609 -7.39184 0.00292765 1 
31097 1 121.277 16.543 -7.21157 0.0143154 1 
31098 1 121.758 14.8703 -4.93397 0.0220235 1 
31099 1 122.347 17.6554 -4.73986 0.133238 1 
31100 1 123.948 15.9345 -6.43343 0.0187006 1 
31101 1 124.508 18.7246 -6.34217 0.0160957 1 
31102 1 125.015 17.053 -4.06295 0.13264 1 
31103 1 125.595 19.8392 -3.99608 0.174431 1 
31104 1 127.212 18.1401 -5.60133 0.0149166 1 
31105 1 127.782 20.9417 -5.50789 0.0733099 1 
31106 1 128.343 19.2601 -3.2349 0.340353 1 
31107 1 128.864 21.9583 -3.12863 0.85944 1 
31108 1 130.472 20.3511 -4.80137 0.183251 1 
31109 1 148.016 34.8461 -12.2446 0.000379934 1 
31110 1 104.94 0.965522 -9.82089 0.000886593 1 
31111 1 107.127 2.05495 -11.2986 0.000562418 1 
31112 1 107.634 0.381882 -9.0263 0.0027145 1 
31113 1 108.186 3.16776 -8.86737 0.00276566 1 
31114 1 109.815 1.46666 -10.5161 0.000879166 1 
31115 1 110.371 4.25853 -10.3756 0.00110176 1 
31116 1 110.866 2.57155 -8.09339 0.00515052 1 
31117 1 111.425 5.36419 -7.97568 0.00370003 1 
31118 1 113.059 3.66776 -9.60885 0.00142631 1 
31119 1 113.623 6.47339 -9.48177 0.00366105 1 
31120 1 114.117 4.76836 -7.22325 0.00478004 1 
31121 1 114.689 7.58198 -7.11892 0.0214724 1 
31122 1 116.319 5.88574 -8.72436 0.00716479 1 
31123 1 116.892 8.72432 -8.5539 0.00793343 1 
31124 1 117.395 6.99394 -6.37558 0.0405462 1 
31125 1 117.96 9.873 -6.13629 0.0724555 1 
31126 1 119.592 8.15103 -7.76745 0.0184803 1 
31127 1 120.155 10.9643 -7.57448 0.00252208 1 
31128 1 120.667 9.3024 -5.33205 0.128815 1 
31129 1 121.223 12.0982 -5.12631 0.0420015 1 
31130 1 122.853 10.3998 -6.77174 0.0337921 1 
31131 1 123.399 13.1645 -6.5783 0.0200452 1 
31132 1 123.89 11.5161 -4.2073 0.263932 1 
31133 1 124.418 14.2453 -4.09464 0.219088 1 
31134 1 126.059 12.5626 -5.79175 0.0248792 1 
31135 1 126.622 15.3264 -5.70422 0.0442699 1 
31136 1 127.079 13.6389 -3.3654 0.31815 1 
31137 1 127.76 16.4168 -3.41703 0.183476 1 
31138 1 129.328 14.7176 -4.94449 0.0366169 1 
31139 1 129.921 17.5225 -4.86438 0.0327086 1 