ITEM: TIMESTEP
0
ITEM: NUMBER OF ATOMS
9732
ITEM: BOX BOUNDS xy xz yz pp pp ss
-3.425372269 67.03942869700001 -3.425372269
0 81.331893036 0
-181.3063978445283 194.492855276502 0
ITEM: ATOMS id type x y z c_csym c_cna 
12875 1 0.19132 6.09868 -11.4869 0.000274943 1 
18397 1 -0.141627 13.1197 -3.88603 0.0189892 1 
18409 1 0.0756068 11.7461 -6.3978 0.00216348 1 
18454 1 -0.0617782 17.791 -14.763 5.35179e-05 1 
18480 1 47.0521 1.41048 -9.19445 0.000996158 1 
18506 1 47.6687 2.84929 -11.5813 0.000333216 1 
18507 1 47.9126 1.44497 -14.0531 0.00012589 1 
18508 1 45.3405 1.73757 -12.8342 0.000219289 1 
18509 1 44.7244 0.294446 -10.4403 0.000743641 1 
18543 1 43.0125 0.627745 -14.0826 0.000141423 1 
21492 1 0.030527 17.33 -1.21537 0.832847 5 
21493 1 0.240778 15.9582 -3.76713 0.0209277 1 
21526 1 47.5688 1.19836 -0.63653 5.34735 5 
21527 1 0.0597254 22.0302 -12.1798 0.000144713 1 
21528 1 -0.55116 20.5889 -9.77416 0.000405994 1 
21529 1 -0.307229 19.191 -12.2701 0.000131752 1 
21555 1 46.5145 4.22313 -4.30417 0.0489403 1 
21556 1 45.757 2.84896 -1.90397 7.16862 5 
21557 1 46.1296 1.39855 -4.34456 0.0289252 1 
21558 1 43.5322 1.71784 -3.18173 0.147287 1 
21559 1 42.8619 0.238274 -0.859531 7.66852 5 
21584 1 47.7846 7.10215 -9.01715 0.00107247 1 
21585 1 47.1575 5.67011 -6.64577 0.00480001 1 
21586 1 47.4187 4.25814 -9.11319 0.000894215 1 
21587 1 46.7906 2.81972 -6.73933 0.00408247 1 
21588 1 44.8367 4.55669 -7.90572 0.00171036 1 
21589 1 44.2 3.1229 -5.54491 0.0122605 1 
21590 1 44.4693 1.70347 -7.98847 0.00237775 1 
21591 1 43.8348 0.27 -5.60485 0.0107979 1 
21592 1 41.8863 1.98997 -6.77044 0.00491964 1 
21593 1 41.2503 0.53518 -4.3653 0.0362962 1 
21622 1 46.0751 7.42559 -12.6694 0.000163265 1 
21623 1 45.4597 5.9901 -10.2833 0.000475434 1 
21624 1 45.7085 4.58267 -12.7549 0.000191702 1 
21625 1 45.0927 3.14373 -10.3688 0.00057595 1 
21626 1 43.1336 4.87728 -11.5367 0.000247176 1 
21627 1 42.5145 3.43722 -9.1527 0.000838404 1 
21628 1 42.7666 2.02924 -11.6145 0.000323099 1 
21629 1 42.1489 0.582731 -9.22125 0.0011411 1 
21630 1 40.1941 2.32212 -10.3918 0.000401553 1 
21631 1 39.5799 0.876016 -7.99864 0.00186614 1 
21663 1 43.7479 6.31599 -13.9249 0.000100295 1 
21665 1 43.381 3.47178 -14.0065 0.000113188 1 
21667 1 40.8083 3.76545 -12.7831 0.000137026 1 
21669 1 40.4409 0.918728 -12.8575 0.00021431 1 
21670 1 38.483 2.65578 -14.0273 0.000116103 1 
21671 1 37.8718 1.21091 -11.63 0.000330617 1 
21672 1 35.547 0.103382 -12.8692 0.00023233 1 
24745 1 -0.426355 24.8317 -7.18344 0.00202087 1 
24769 1 0.18119 26.2716 -9.58692 0.000777053 1 
24770 1 -0.185015 23.4298 -9.68317 0.000447691 1 
24795 1 47.2467 9.91375 -4.02299 0.0471583 1 
24796 1 46.5422 8.49284 -1.72201 0.409516 1 
24797 1 46.8682 7.07357 -4.16873 0.0272988 1 
24798 1 46.2052 5.56221 -1.85558 3.78119 5 
24799 1 44.2802 7.37133 -2.90439 0.143863 1 
24800 1 43.5016 5.8567 -0.645019 5.50188 5 
24801 1 43.8861 4.5224 -3.07781 0.13048 1 
24802 1 42.95 3.16588 -0.596643 7.77925 5 
24803 1 41.2477 4.84125 -1.88681 2.92481 5 
24804 1 40.9722 1.96925 -2.00469 4.99483 5 
24805 1 38.5869 2.32854 -0.769736 6.62152 5 
24833 1 47.5236 8.50887 -6.52907 0.00546494 1 
24834 1 45.5741 10.229 -7.71409 0.000988564 1 
24835 1 44.9366 8.79694 -5.32046 0.00733085 1 
24836 1 45.2029 7.39784 -7.80735 0.00128082 1 
24837 1 44.5624 5.97038 -5.42728 0.00782475 1 
24838 1 42.6214 7.69889 -6.58709 0.00223195 1 
24839 1 41.9822 6.27151 -4.21431 0.018624 1 
24840 1 42.2552 4.85641 -6.6956 0.00539424 1 
24841 1 41.613 3.41849 -4.34804 0.0434936 1 
24842 1 39.6814 5.155 -5.46798 0.0104879 1 
24843 1 39.0542 3.74337 -3.08723 0.141864 1 
24844 1 39.3174 2.2861 -5.52788 0.0102149 1 
24845 1 38.6892 0.824588 -3.1249 0.157947 1 
24846 1 36.7696 2.58284 -4.27335 0.0545594 1 
24847 1 36.157 1.13327 -1.79323 1.943 5 
24848 1 33.9464 0.131793 -3.17835 0.409786 1 
24876 1 46.8082 13.1036 -12.4941 0.000170073 1 
24877 1 46.195 11.6654 -10.1036 0.000352762 1 
24878 1 46.4417 10.2654 -12.5815 0.000155095 1 
24879 1 45.8267 8.82976 -10.1927 0.000367687 1 
24880 1 43.8666 10.5611 -11.3633 0.000216821 1 
24881 1 43.2485 9.12565 -8.97676 0.000568079 1 
24882 1 43.5 7.72136 -11.4516 0.000231526 1 
24883 1 42.8814 6.28766 -9.06763 0.000906822 1 
24884 1 40.9241 8.01858 -10.2285 0.000356923 1 
24885 1 40.3064 6.58732 -7.84307 0.00149507 1 
24886 1 40.5591 5.17281 -10.3137 0.00024401 1 
24887 1 39.9398 3.73141 -7.92657 0.00125038 1 
24888 1 37.9895 5.46958 -9.08544 0.000463948 1 
24889 1 37.3768 4.0317 -6.6858 0.00428662 1 
24890 1 37.6275 2.61928 -9.16505 0.000909651 1 
24891 1 37.0259 1.17947 -6.77446 0.00881782 1 
24892 1 35.0706 2.92137 -7.93966 0.00342783 1 
24893 1 34.4866 1.49332 -5.55991 0.0395644 1 
24894 1 34.7071 0.0563858 -7.99595 0.00468225 1 
24895 1 32.1604 0.355282 -6.7597 0.0133729 1 
24921 1 47.419 14.5428 -14.8856 8.00949e-05 1 
24923 1 47.053 11.7029 -14.9729 7.33643e-05 1 
24925 1 44.4801 11.9986 -13.7518 0.000100638 1 
24927 1 44.1141 9.15826 -13.8393 0.000100154 1 
24929 1 41.5395 9.45463 -12.6154 0.000122541 1 
24931 1 41.174 6.61143 -12.7017 0.000111076 1 
24932 1 39.2139 8.34664 -13.8632 5.8516e-05 1 
24933 1 38.6015 6.90873 -11.4735 0.000125607 1 
24934 1 38.8491 5.5019 -13.9481 7.7668e-05 1 
24935 1 38.2376 4.0607 -11.5571 0.000206415 1 
24936 1 36.279 5.79866 -12.7184 0.00013806 1 
24937 1 35.6711 4.35837 -10.329 0.000533517 1 
24938 1 35.9142 2.95009 -12.798 0.000204224 1 
24939 1 35.3072 1.50499 -10.4005 0.000692574 1 
24940 1 33.3481 3.24562 -11.5665 0.000394109 1 
24941 1 32.7475 1.8 -9.16989 0.0020099 1 
24942 1 32.9819 0.396053 -11.6349 0.000451137 1 
24943 1 30.4199 0.688033 -10.3969 0.000962968 1 
24989 1 33.9553 4.68864 -13.9611 0.000114769 1 
24991 1 33.5894 1.84175 -14.0382 0.000157573 1 
24993 1 31.0236 2.13545 -12.8032 0.000295909 1 
24995 1 28.7 1.02954 -14.045 0.000224159 1 
28078 1 -0.295114 29.0753 -4.53897 0.0519233 1 
28079 1 -0.0612656 27.673 -7.07136 0.00333012 1 
28080 1 -0.661783 26.2275 -4.66525 0.00488711 1 
28126 1 47.3704 14.0991 -1.68133 6.38886 5 
28127 1 47.6561 12.6896 -3.99449 0.137228 1 
28128 1 46.9242 11.3068 -1.48586 2.65838 5 
28129 1 45.0656 12.9929 -2.75196 0.121697 1 
28130 1 44.3342 11.599 -0.359469 10.8571 5 
28131 1 44.6207 10.1907 -2.82918 0.0768614 1 
28132 1 43.8503 8.78497 -0.389618 6.43133 5 
28133 1 42.001 10.5032 -1.43691 6.56323 5 
28134 1 41.6995 7.70433 -1.77018 0.521498 1 
28135 1 39.1881 8.01143 -0.532103 11.4535 5 
28136 1 38.7574 5.09264 -0.401444 6.82079 5 
28138 1 -0.799403 32.2657 -13.0766 0.000165739 1 
28165 1 46.3113 15.8922 -7.5477 0.00136051 1 
28166 1 45.6992 14.4425 -5.15244 0.00908504 1 
28167 1 45.9464 13.0594 -7.62719 0.000871192 1 
28168 1 45.3139 11.6182 -5.23495 0.00913033 1 
28169 1 43.369 13.3514 -6.40883 0.00231536 1 
28170 1 42.7295 11.8947 -4.01216 0.0754727 1 
28171 1 42.9952 10.5247 -6.50116 0.00384708 1 
28172 1 42.3588 9.11275 -4.09523 0.0557051 1 
28173 1 40.4219 10.8265 -5.26883 0.0182748 1 
28174 1 39.8224 9.42279 -2.85306 0.335921 1 
28175 1 40.0528 8.00251 -5.35116 0.00693978 1 
28176 1 39.3871 6.56482 -2.97696 0.109896 1 
28177 1 37.5054 8.28381 -4.12259 0.0589212 1 
28178 1 36.8677 6.87506 -1.57674 6.1949 5 
28179 1 37.125 5.47776 -4.2143 0.0570875 1 
28180 1 36.5499 4.0707 -1.89358 0.789165 1 
28181 1 34.6082 5.76483 -2.95493 0.0949274 1 
28182 1 34.0637 4.3443 -0.59619 11.7382 5 
28183 1 34.2272 2.91232 -3.04777 0.135005 1 
28184 1 33.6047 1.61612 -0.44855 5.4685 5 
28185 1 31.6525 3.27017 -1.71972 6.06393 5 
28186 1 31.427 0.487717 -2.0554 1.56188 5 
28187 1 28.9772 0.934564 -0.864477 7.5109 5 
28214 1 46.9263 17.34 -9.93506 0.000584303 1 
28215 1 47.174 15.9427 -12.4076 0.00020051 1 
28216 1 46.5618 14.5007 -10.018 0.000402741 1 
28217 1 44.5986 16.2379 -11.1878 0.000201592 1 
28218 1 43.9842 14.7952 -8.80007 0.000413175 1 
28219 1 44.2331 13.3991 -11.2751 0.000219576 1 
28220 1 43.6178 11.961 -8.88754 0.00059185 1 
28221 1 41.6564 13.6954 -10.0488 0.000380031 1 
28222 1 41.0417 12.2583 -7.66034 0.0017757 1 
28223 1 41.2902 10.8582 -10.1384 0.000307378 1 
28224 1 40.6716 9.42398 -7.75002 0.00147324 1 
28225 1 38.7165 11.1568 -8.90072 0.000595761 1 
28226 1 38.1065 9.73107 -6.4979 0.00605634 1 
28227 1 38.3524 8.31982 -8.9953 0.000841153 1 
28228 1 37.7426 6.8857 -6.61514 0.00528728 1 
28229 1 35.7893 8.61941 -7.75805 0.00153005 1 
28230 1 35.1843 7.17821 -5.38096 0.0196978 1 
28231 1 35.4273 5.76943 -7.85494 0.00128756 1 
28232 1 34.8333 4.33904 -5.45307 0.00555661 1 
28233 1 32.8714 6.07661 -6.61701 0.00338425 1 
28234 1 32.296 4.64316 -4.23786 0.03953 1 
28235 1 32.52 3.22784 -6.72241 0.0137474 1 
28236 1 31.9539 1.84308 -4.34757 0.143265 1 
28237 1 29.9623 3.53463 -5.51097 0.0408041 1 
28238 1 29.4032 2.16858 -3.17073 0.494059 1 
28239 1 29.6222 0.643209 -5.52061 0.0430207 1 
28240 1 27.0911 0.910052 -4.26959 0.159131 1 
28270 1 45.212 17.6796 -13.5752 0.000104987 1 
28272 1 44.8461 14.8385 -13.6638 0.000101235 1 
28273 1 42.8844 16.5738 -14.8271 5.86112e-05 1 
28274 1 42.2708 15.1344 -12.4376 0.000128471 1 
28275 1 42.5184 13.7331 -14.9162 5.7396e-05 1 
28276 1 41.905 12.295 -12.5266 0.000127521 1 
28277 1 39.9441 14.0294 -13.685 6.58971e-05 1 
28278 1 39.33 12.5923 -11.293 0.000167365 1 
28279 1 39.5787 11.189 -13.7748 6.50144e-05 1 
28280 1 38.9654 9.75262 -11.3848 0.000158219 1 
28281 1 37.0061 11.4869 -12.539 0.000115971 1 
28282 1 36.395 10.0521 -10.1472 0.000326979 1 
28283 1 36.6424 8.64455 -12.6307 9.4215e-05 1 
28284 1 36.033 7.20785 -10.2415 0.000222919 1 
28285 1 34.0734 8.94336 -11.3938 0.000187681 1 
28286 1 33.4681 7.50792 -9.00535 0.000491962 1 
28287 1 33.7113 6.09688 -11.4859 0.000278766 1 
28288 1 33.1088 4.65947 -9.09926 0.00151382 1 
28289 1 31.1454 6.39559 -10.2513 0.000631567 1 
28290 1 30.5481 4.95987 -7.87145 0.00400585 1 
28291 1 30.7845 3.54075 -10.3331 0.000816234 1 
28292 1 30.1902 2.09255 -7.93637 0.00552542 1 
28293 1 28.2225 3.83362 -9.09597 0.00191129 1 
28294 1 27.6372 2.38039 -6.69001 0.0148527 1 
28295 1 27.862 0.977429 -9.15477 0.00282888 1 
28296 1 25.3092 1.27014 -7.93278 0.0041693 1 
28337 1 37.6191 12.9231 -14.9326 4.352e-05 1 
28341 1 34.6834 10.3792 -13.7863 7.72493e-05 1 
28343 1 34.3195 7.53541 -13.8765 8.64239e-05 1 
28345 1 31.7511 7.83305 -12.6404 0.000160603 1 
28347 1 31.3881 4.98469 -12.727 0.000198776 1 
28348 1 29.4291 6.72213 -13.8859 0.000106183 1 
28349 1 28.8226 5.28044 -11.4907 0.000358002 1 
28350 1 29.0654 3.87485 -13.9688 0.000166789 1 
28351 1 28.4604 2.42863 -11.5665 0.000665015 1 
28352 1 26.5013 4.17084 -12.7352 0.000238193 1 
28353 1 25.9004 2.72397 -10.3358 0.00096222 1 
28354 1 26.1376 1.32416 -12.8124 0.000312242 1 
28355 1 23.5756 1.62111 -11.5859 0.000417893 1 
28356 1 22.9765 0.174285 -9.18409 0.00162503 1 
28414 1 24.1792 3.06519 -13.9862 0.000122176 1 
28416 1 23.8135 0.222147 -14.0653 0.000149071 1 
28418 1 21.2491 0.519558 -12.8403 0.000183689 1 
31433 1 -0.100774 33.2427 -1.94202 5.65774 5 
31434 1 -0.589032 30.4214 -1.84719 6.20122 5 
31439 1 0.0767867 31.865 -4.43493 0.0386851 1 
31460 1 -0.677091 36.4857 -10.5081 0.000822709 1 
31462 1 -1.04371 33.6591 -10.5779 0.000540773 1 
31488 1 45.7745 18.6832 -2.68133 0.168155 1 
31489 1 45.0884 17.1891 -0.380675 7.83871 5 
31490 1 45.3914 15.8168 -2.69027 0.129792 1 
31491 1 44.8234 14.4121 -0.123113 10.5462 5 
31492 1 42.7672 16.0305 -1.29308 4.57034 5 
31493 1 42.5318 13.2748 -1.63032 5.72074 5 
31494 1 40.0865 13.7444 -0.502154 12.5886 5 
31495 1 39.6627 10.8824 0.133232 8.47819 5 
31496 1 -0.0652 37.9268 -12.9304 0.000346909 1 
31498 1 -0.433301 35.095 -12.9987 0.000241536 1 
31523 1 47.0403 21.5933 -7.39361 0.00318573 1 
31524 1 46.4074 20.1362 -5.03549 0.0130402 1 
31525 1 46.6709 18.7354 -7.47338 0.00270325 1 
31526 1 46.0446 17.2796 -5.09046 0.013757 1 
31527 1 44.0848 19.0204 -6.2404 0.00855362 1 
31528 1 43.4567 17.5551 -3.81477 0.0900698 1 
31529 1 43.7343 16.1877 -6.32793 0.00448423 1 
31530 1 43.1321 14.7445 -3.94307 0.0930223 1 
31531 1 41.171 16.499 -5.10983 0.0346696 1 
31532 1 40.6044 15.0867 -2.78571 0.477991 1 
31533 1 40.8013 13.6359 -5.17314 0.029831 1 
31534 1 40.1539 12.174 -2.72357 0.594595 1 
31535 1 38.2513 13.9203 -3.89967 0.176739 1 
31536 1 37.6466 12.5236 -1.24867 4.15926 5 
31537 1 37.8777 11.1415 -3.96966 0.0963134 1 
31538 1 37.3725 9.71332 -1.64136 6.41059 5 
31539 1 35.3687 11.4285 -2.75703 0.292779 1 
31540 1 34.8757 9.80297 -0.585328 11.674 5 
31541 1 34.9827 8.51766 -2.90531 0.34621 1 
31542 1 34.3698 7.13467 -0.235998 3.31382 5 
31543 1 32.3815 8.83847 -1.4927 1.38319 5 
31544 1 32.1306 6.03884 -1.7538 6.1046 5 
31545 1 29.6311 6.22598 -0.721937 13.6327 5 
31546 1 29.0822 3.6276 -0.436964 3.48863 5 
31574 1 47.2918 20.187 -9.85059 0.000818909 1 
31575 1 45.3306 21.9278 -11.0084 0.00042761 1 
31576 1 44.7117 20.4791 -8.63108 0.00140273 1 
31577 1 44.9642 19.0805 -11.1002 0.000231839 1 
31578 1 44.3476 17.6346 -8.71564 0.000514863 1 
31579 1 42.3869 19.3753 -9.87413 0.000383163 1 
31580 1 41.7716 17.9318 -7.48787 0.00183293 1 
31581 1 42.0216 16.5331 -9.96044 0.000325847 1 
31582 1 41.4085 15.0895 -7.57012 0.00212804 1 
31583 1 39.4466 16.8267 -8.71894 0.000980024 1 
31584 1 38.8404 15.3834 -6.31153 0.010777 1 
31585 1 39.0818 13.9925 -8.80709 0.000698241 1 
31586 1 38.4732 12.555 -6.40897 0.00543794 1 
31587 1 36.5168 14.2899 -7.54984 0.00245523 1 
31588 1 35.9246 12.8518 -5.14747 0.0134919 1 
31589 1 36.1519 11.4559 -7.65311 0.00115795 1 
31590 1 35.5617 10.0203 -5.25677 0.0116267 1 
31591 1 33.5954 11.7453 -6.39756 0.00215848 1 
31592 1 33.013 10.2796 -4.00505 0.0348965 1 
31593 1 33.2293 8.91203 -6.5116 0.00318794 1 
31594 1 32.6376 7.48397 -4.0994 0.0573068 1 
31595 1 30.6701 9.21325 -5.26891 0.0130445 1 
31596 1 30.0852 7.79401 -2.92552 0.219962 1 
31597 1 30.3199 6.37655 -5.39591 0.00856759 1 
31598 1 29.746 4.91705 -3.05008 0.264195 1 
31599 1 27.7455 6.64809 -4.1593 0.0316827 1 
31600 1 27.1284 5.23074 -1.71547 1.41328 5 
31601 1 27.3918 3.82805 -4.23962 0.0689458 1 
31602 1 26.8631 2.39111 -1.87532 6.25523 5 
31603 1 24.8417 4.13016 -3.08944 0.157537 1 
31604 1 24.3395 2.60091 -0.859917 10.1305 5 
31605 1 24.5472 1.18523 -3.12997 0.405955 1 
31606 1 21.8372 1.60716 -1.93379 1.73727 5 
31636 1 45.9446 23.3674 -13.3898 0.000187497 1 
31638 1 45.5784 20.523 -13.4844 0.000128583 1 
31639 1 43.6173 22.2578 -14.644 8.09437e-05 1 
31640 1 43.0031 20.8189 -12.2572 0.000145609 1 
31641 1 43.2508 19.4155 -14.7366 6.41168e-05 1 
31642 1 42.6367 17.9751 -12.3486 0.000140816 1 
31643 1 40.6764 19.7107 -13.5045 8.03488e-05 1 
31644 1 40.0609 18.2695 -11.114 0.000221167 1 
31645 1 40.31 16.8694 -13.5952 6.9541e-05 1 
31646 1 39.6953 15.4302 -11.2026 0.000185333 1 
31647 1 37.7366 17.1642 -12.3562 0.000125013 1 
31648 1 37.1235 15.7253 -9.95679 0.000464531 1 
31649 1 37.3709 14.3259 -12.4468 0.000120816 1 
31650 1 36.7588 12.8905 -10.0496 0.00038217 1 
31651 1 34.8016 14.6216 -11.2024 0.000226826 1 
31652 1 34.1942 13.1859 -8.7992 0.000739546 1 
31653 1 34.4367 11.7847 -11.2975 0.000228141 1 
31654 1 33.8294 10.35 -8.90273 0.000607326 1 
31655 1 31.8708 12.0807 -10.0529 0.000355863 1 
31656 1 31.2669 10.6458 -7.65606 0.00135277 1 
31657 1 31.5066 9.24182 -10.1537 0.000391719 1 
31658 1 30.9047 7.80838 -7.76779 0.00148287 1 
31659 1 28.94 9.53839 -8.91049 0.000665168 1 
31660 1 28.3371 8.10158 -6.52506 0.00313748 1 
31661 1 28.5793 6.69251 -9.01312 0.000976498 1 
31662 1 27.9816 5.2516 -6.63375 0.0062731 1 
31663 1 26.0115 6.99051 -7.77295 0.00205553 1 
31664 1 25.4161 5.56325 -5.39693 0.0223058 1 
31665 1 25.6635 4.1328 -7.86777 0.00352143 1 
31666 1 25.0926 2.67381 -5.49367 0.0266361 1 
31667 1 23.0978 4.4334 -6.6541 0.00771636 1 
31668 1 22.5187 2.96369 -4.32093 0.0999738 1 
31669 1 22.7433 1.5673 -6.72697 0.0111339 1 
31670 1 22.1426 0.126502 -4.30501 0.0734843 1 
31671 1 20.1601 1.90731 -5.5171 0.0261004 1 
31672 1 19.5329 0.50639 -3.19964 0.361521 1 
31710 1 38.3513 18.6033 -14.7518 4.55732e-05 1 
31712 1 37.9849 15.7632 -14.8424 4.34177e-05 1 
31714 1 35.4138 16.0586 -13.6029 8.0595e-05 1 
31716 1 35.0481 13.2198 -13.6943 8.10863e-05 1 
31717 1 33.0916 14.9519 -14.853 5.56144e-05 1 
31718 1 32.4797 13.5158 -12.4528 0.000132073 1 
31719 1 32.7257 12.1123 -14.944 5.63105e-05 1 
31720 1 32.1146 10.6766 -12.5471 0.00013806 1 
31721 1 30.1578 12.4082 -13.7048 9.2061e-05 1 
31722 1 29.5475 10.973 -11.3055 0.000222389 1 
31723 1 29.7928 9.56711 -13.7968 9.7636e-05 1 
31724 1 29.184 8.13028 -11.4018 0.000270898 1 
31725 1 27.2258 9.86349 -12.558 0.000158082 1 
31726 1 26.617 8.42704 -10.1621 0.00039242 1 
31727 1 26.863 7.01893 -12.6498 0.00015966 1 
31728 1 26.2584 5.57788 -10.2559 0.000558811 1 
31729 1 24.2969 7.317 -11.4149 0.000252677 1 
31730 1 23.6921 5.87847 -9.02483 0.00113507 1 
31731 1 23.9374 4.46905 -11.5051 0.000330296 1 
31732 1 23.338 3.023 -9.11378 0.00143822 1 
31733 1 21.3705 4.77005 -10.278 0.000532117 1 
31734 1 20.765 3.32964 -7.89469 0.00227193 1 
31735 1 21.0098 1.92216 -10.3649 0.000560943 1 
31736 1 20.4068 0.484252 -7.97549 0.00337817 1 
31737 1 18.4373 2.22646 -9.14531 0.00129227 1 
31738 1 17.8236 0.800254 -6.76009 0.0117033 1 
31792 1 27.8365 11.2997 -14.958 6.77816e-05 1 
31796 1 24.9056 8.75443 -13.8123 0.000111818 1 
31798 1 24.5425 5.91038 -13.9016 0.000103764 1 
31800 1 21.977 6.20878 -12.6712 0.000208598 1 
31802 1 21.6145 3.36353 -12.7594 0.000167528 1 
31803 1 19.6554 5.10098 -13.9316 0.000102074 1 
31804 1 19.0472 3.66278 -11.5366 0.000282926 1 
31805 1 19.2898 2.25786 -14.0167 9.2504e-05 1 
31806 1 18.6816 0.818224 -11.6186 0.00027244 1 
31807 1 16.7218 2.55474 -12.797 0.000169887 1 
31808 1 16.1105 1.11626 -10.4037 0.000498832 1 
31880 1 14.3942 1.44635 -14.0546 0.000126126 1 
34765 1 0.31888 36.0604 -1.82722 2.22127 5 
34768 1 -1.13703 39.277 -5.54281 0.0411035 1 
34787 1 0.0604467 42.1644 -10.4023 0.000915329 1 
34788 1 -0.547015 40.7169 -7.98771 0.0050524 1 
34789 1 -0.307964 39.3201 -10.454 0.00068377 1 
34790 1 -0.913406 37.8788 -8.02599 0.00133284 1 
34815 1 46.5226 24.3943 -2.5051 0.293257 1 
34816 1 45.644 22.928 -0.180627 4.57779 5 
34817 1 46.1001 21.5725 -2.63031 0.0973637 1 
34818 1 45.316 20.2473 -0.307506 7.63318 5 
34819 1 43.4543 21.889 -1.37244 3.33821 5 
34820 1 43.1544 18.973 -1.41056 5.09035 5 
34821 1 40.6471 19.4305 -0.184423 8.93155 5 
34822 1 40.3087 16.5245 -0.0870951 9.18402 5 
34850 1 46.7767 23.0131 -4.95561 0.0136804 1 
34851 1 44.8259 24.7589 -6.0812 0.0140661 1 
34852 1 44.1781 23.2809 -3.77399 0.101773 1 
34853 1 44.4532 21.8803 -6.18381 0.00697414 1 
34854 1 43.8142 20.4224 -3.80104 0.023375 1 
34855 1 41.865 22.1706 -4.95344 0.0267435 1 
34856 1 41.2595 20.7621 -2.53435 0.0835672 1 
34857 1 41.5152 19.3234 -4.99947 0.0131211 1 
34858 1 40.9092 17.8707 -2.5705 0.170858 1 
34859 1 38.9739 19.6272 -3.74662 0.0234399 1 
34860 1 38.3662 18.2272 -1.25781 4.76996 5 
34861 1 38.6138 16.8325 -3.85612 0.11139 1 
34862 1 38.0394 15.3989 -1.60607 6.18643 5 
34863 1 36.0541 17.0845 -2.52919 0.0900143 1 
34864 1 35.5897 15.6142 -0.0843619 7.4413 5 
34865 1 35.7181 14.1878 -2.58331 0.251717 1 
34866 1 35.1067 12.726 -0.00143852 4.72212 5 
34867 1 33.2072 14.4535 -1.3921 0.420695 1 
34868 1 32.8281 11.5983 -1.53008 5.31072 5 
34869 1 30.1255 11.8966 -0.215727 2.8051 5 
34870 1 29.7667 9.11928 -0.281288 2.82194 5 
34899 1 46.0619 27.6211 -10.8015 0.000803102 1 
34900 1 45.4468 26.1944 -8.42777 0.00266421 1 
34901 1 45.6971 24.7774 -10.9088 0.000670564 1 
34902 1 45.0801 23.3375 -8.54006 0.00210968 1 
34903 1 43.1191 25.0737 -9.67906 0.000483217 1 
34904 1 42.4987 23.6353 -7.30457 0.00350105 1 
34905 1 42.7529 22.2237 -9.78004 0.000487849 1 
34906 1 42.1325 20.7715 -7.40406 0.00336027 1 
34907 1 40.1765 22.5163 -8.54464 0.000590962 1 
34908 1 39.5583 21.0663 -6.16055 0.00443621 1 
34909 1 39.8108 19.6694 -8.63741 0.000618105 1 
34910 1 39.2015 18.2314 -6.24573 0.00633189 1 
34911 1 37.2397 19.9599 -7.38619 0.00134464 1 
34912 1 36.6378 18.5159 -4.97671 0.0110307 1 
34913 1 36.8792 17.1168 -7.45992 0.00341039 1 
34914 1 36.2905 15.6719 -5.02277 0.0298789 1 
34915 1 34.3259 17.407 -6.19725 0.00372272 1 
34916 1 33.7605 15.9578 -3.76709 0.0209078 1 
34917 1 33.9644 14.5787 -6.28867 0.00305881 1 
34918 1 33.378 13.1191 -3.88593 0.0189663 1 
34919 1 31.4138 14.8603 -5.04622 0.00448793 1 
34920 1 30.8263 13.387 -2.64287 0.0367912 1 
34921 1 31.0401 12.0278 -5.14165 0.00397806 1 
34922 1 30.4486 10.5642 -2.72462 0.0749553 1 
34923 1 28.4876 12.3248 -3.90266 0.021092 1 
34924 1 27.8484 10.8427 -1.57536 0.279921 1 
34925 1 28.0873 9.48236 -4.02226 0.0268073 1 
34926 1 27.5122 7.95642 -1.64551 5.19006 5 
34927 1 25.4886 9.72993 -2.72737 0.294299 1 
34928 1 24.6103 8.34652 -0.176537 4.1817 5 
34929 1 25.1502 6.96065 -2.85574 0.192444 1 
34930 1 24.5085 5.55522 -0.531951 2.57454 5 
34931 1 22.5343 7.25508 -1.74769 0.613381 1 
34932 1 22.281 4.3079 -1.9004 5.87813 5 
34933 1 19.2243 4.77959 -0.25817 6.01425 5 
34934 1 19.2148 2.0602 -0.770149 7.73961 5 
34962 1 46.6758 29.0468 -13.1933 0.000270323 1 
34964 1 46.3101 26.2099 -13.2915 0.000247524 1 
34965 1 44.3494 27.9373 -14.4542 0.000148037 1 
34966 1 43.7353 26.5069 -12.0617 0.000320137 1 
34967 1 43.9834 25.0992 -14.5491 0.000114675 1 
34968 1 43.3695 23.664 -12.1614 0.000196454 1 
34969 1 41.4094 25.3947 -13.3158 0.00016368 1 
34970 1 40.7938 23.9586 -10.9273 0.000267613 1 
34971 1 41.0431 22.5532 -13.4116 0.000105523 1 
34972 1 40.4274 21.1134 -11.0238 0.000193464 1 
34973 1 38.4695 22.8471 -12.1731 0.000152437 1 
34974 1 37.8535 21.406 -9.78064 0.000306964 1 
34975 1 38.1029 20.0046 -12.2658 0.000126335 1 
34976 1 37.488 18.5618 -9.86872 0.000529468 1 
34977 1 35.533 20.2971 -11.0209 0.00023926 1 
34978 1 34.9222 18.853 -8.61581 0.000918171 1 
34979 1 35.167 17.4579 -11.111 0.00023032 1 
34980 1 34.5592 16.0183 -8.70358 0.000714583 1 
34981 1 32.6033 17.7509 -9.86303 0.000317435 1 
34982 1 32.0028 16.3096 -7.45296 0.000667423 1 
34983 1 32.2371 14.9156 -9.95538 0.000275111 1 
34984 1 31.6352 13.4763 -7.54923 0.000701215 1 
34985 1 29.6755 15.2085 -8.70965 0.00030316 1 
34986 1 29.0763 13.7691 -6.30303 0.000884978 1 
34987 1 29.3063 12.375 -8.80677 0.000454214 1 
34988 1 28.702 10.9378 -6.40774 0.00270495 1 
34989 1 26.7403 12.6667 -7.56153 0.00107608 1 
34990 1 26.1322 11.2119 -5.16531 0.0152515 1 
34991 1 26.3713 9.83028 -7.66556 0.000984939 1 
34992 1 25.7594 8.38884 -5.26722 0.0112464 1 
34993 1 23.7974 10.1243 -6.42365 0.00346526 1 
34994 1 23.1754 8.69731 -4.02718 0.0560489 1 
34995 1 23.4377 7.29363 -6.53743 0.00552062 1 
34996 1 22.8352 5.84711 -4.1968 0.0414712 1 
34997 1 20.8541 7.58299 -5.28843 0.0156763 1 
34998 1 20.2255 6.07576 -2.91759 0.46532 5 
34999 1 20.5073 4.73949 -5.42965 0.0206294 1 
35000 1 19.8724 3.35205 -3.05506 0.342037 5 
35001 1 17.8913 5.04669 -4.17589 0.0448966 1 
35002 1 17.2084 3.61413 -1.82279 5.27842 5 
35003 1 17.5413 2.20009 -4.25673 0.127958 1 
35004 1 16.8124 0.815165 -1.64386 5.81492 5 
35005 1 14.9338 2.47033 -3.1226 0.284969 1 
35006 1 14.0501 1.19905 -0.637134 5.35292 5 
35044 1 39.0845 24.2842 -14.5676 8.39461e-05 1 
35046 1 38.7179 21.4439 -14.6604 5.73325e-05 1 
35048 1 36.147 21.7376 -13.4207 9.37826e-05 1 
35050 1 35.7802 18.8975 -13.5121 8.0499e-05 1 
35051 1 33.8253 20.6296 -14.6724 5.29156e-05 1 
35052 1 33.2128 19.1907 -12.2698 0.000131617 1 
35053 1 33.4583 17.7907 -14.7626 5.30528e-05 1 
35054 1 32.846 16.353 -12.3603 0.000127557 1 
35055 1 30.8918 18.0843 -13.5237 7.26567e-05 1 
35056 1 30.2817 16.6463 -11.1177 0.000152364 1 
35057 1 30.5243 15.2466 -13.6134 8.09648e-05 1 
35058 1 29.9138 13.8105 -11.2097 0.000182636 1 
35059 1 27.9589 15.5399 -12.3743 0.00010806 1 
35060 1 27.3488 14.104 -9.96657 0.000282709 1 
35061 1 27.5913 12.7032 -12.4647 0.000145085 1 
35062 1 26.9808 11.268 -10.0626 0.000317349 1 
35063 1 25.0255 12.9973 -11.2252 0.000241922 1 
35064 1 24.413 11.5633 -8.81861 0.000813691 1 
35065 1 24.6591 10.16 -11.3191 0.000302655 1 
35066 1 24.0479 8.72502 -8.92305 0.000626365 1 
35067 1 22.0922 10.4574 -10.0794 0.00118847 1 
35068 1 21.475 9.02574 -7.6772 0.00341756 1 
35069 1 21.7294 7.61708 -10.1806 0.000849733 1 
35070 1 21.1196 6.18142 -7.79357 0.00282522 1 
35071 1 19.1599 7.91414 -8.95367 0.000967501 1 
35072 1 18.5384 6.47509 -6.56774 0.00387249 1 
35073 1 18.7984 5.06968 -9.05364 0.000865264 1 
35074 1 18.1789 3.63345 -6.6605 0.00846538 1 
35075 1 16.2228 5.37229 -7.84298 0.00158497 1 
35076 1 15.5971 3.93594 -5.47489 0.0130543 1 
35077 1 15.8595 2.52727 -7.93835 0.00192173 1 
35078 1 15.2247 1.10056 -5.55891 0.0141159 1 
35079 1 13.2719 2.82108 -6.74052 0.00407014 1 
35080 1 12.611 1.40009 -4.34587 0.0287733 1 
35081 1 10.3161 0.272351 -5.60651 0.0107483 1 
35134 1 28.57 16.9773 -14.7798 4.37786e-05 1 
35136 1 28.2026 14.1391 -14.8683 5.81154e-05 1 
35138 1 25.6369 14.433 -13.6323 8.85292e-05 1 
35140 1 25.2703 11.5951 -13.7215 0.000111681 1 
35141 1 23.3159 13.326 -14.8925 7.17696e-05 1 
35142 1 22.7049 11.8901 -12.4868 0.000260669 1 
35143 1 22.95 10.4873 -14.9808 8.16859e-05 1 
35144 1 22.3398 9.05172 -12.5786 0.000290887 1 
35145 1 20.3848 10.7827 -13.7526 0.000107428 1 
35146 1 19.7741 9.34822 -11.3507 0.00036595 1 
35147 1 20.0198 7.94314 -13.8424 0.000112477 1 
35148 1 19.4102 6.50692 -11.4454 0.000289585 1 
35149 1 17.453 8.23935 -12.6211 0.000145472 1 
35150 1 16.8406 6.80522 -10.2272 0.000497033 1 
35151 1 17.0878 5.39825 -12.7112 0.00016639 1 
35152 1 16.4763 3.96197 -10.3214 0.000490053 1 
35153 1 14.5166 5.69502 -11.4967 0.000308902 1 
35154 1 13.9 4.25932 -9.11427 0.000890826 1 
35155 1 14.1501 2.85061 -11.5826 0.000331801 1 
35156 1 13.5336 1.41207 -9.1959 0.000993908 1 
35157 1 11.574 3.14554 -10.3703 0.000572696 1 
35158 1 10.9506 1.70557 -7.99007 0.00237075 1 
35159 1 11.2059 0.296829 -10.4423 0.000741432 1 
35160 1 8.63006 0.585628 -9.22332 0.00113796 1 
35230 1 15.1284 7.13098 -13.887 0.000102409 1 
35232 1 14.762 4.28906 -13.9732 0.000116683 1 
35234 1 12.1897 4.58416 -12.7562 0.000190655 1 
35236 1 11.8219 1.73954 -12.836 0.000218367 1 
35237 1 9.8621 3.47381 -14.0082 0.000112473 1 
35238 1 9.24781 2.03171 -11.6164 0.000320293 1 
35239 1 9.49373 0.630367 -14.0849 0.000140498 1 
35240 1 6.92186 0.921792 -12.8598 0.000210475 1 
38013 1 -0.420402 44.987 -5.4861 0.00851402 1 
38014 1 -1.02581 43.565 -3.06544 0.119345 1 
38015 1 -0.775419 42.148 -5.55572 0.0326856 1 
38016 1 -1.32752 40.7971 -3.15944 0.38954 1 
38029 1 0.184058 46.4291 -7.87966 0.00111155 1 
38030 1 -0.180819 43.5755 -7.9504 0.00245138 1 
38056 1 46.3823 28.6538 0.260347 13.7141 5 
38057 1 46.8763 27.3046 -2.28763 0.360369 1 
38058 1 45.9619 25.694 -0.192808 7.66126 5 
38059 1 44.1999 27.5455 -1.08957 5.42606 5 
38060 1 43.807 24.7353 -1.48882 6.4938 5 
38061 1 41.1596 25.1357 -0.083393 12.8724 5 
38062 1 41.1416 22.2324 0.0516422 3.43593 5 
38063 1 -0.919184 48.1997 -13.8867 0.000122937 1 
38064 1 -1.53019 46.7602 -11.4954 0.000329542 1 
38065 1 -1.2849 45.3514 -13.9666 0.000163908 1 
38091 1 45.5445 30.446 -5.78039 0.0240949 1 
38092 1 44.8967 29.0148 -3.42431 0.0619536 1 
38093 1 45.1918 27.6168 -5.93926 0.0123321 1 
38094 1 44.5875 26.1984 -3.62197 0.17589 1 
38095 1 42.6001 27.9124 -4.70396 0.0145516 1 
38096 1 41.9325 26.5091 -2.35441 0.928874 5 
38097 1 42.2481 25.0604 -4.81497 0.0546187 1 
38098 1 41.5514 23.5801 -2.52625 0.304324 1 
38099 1 39.6441 25.3064 -3.62425 0.0896529 1 
38100 1 39.055 23.8424 -1.19187 6.62109 5 
38101 1 39.2888 22.4644 -3.683 0.0302519 1 
38102 1 38.759 21.0719 -1.2594 7.42905 5 
38103 1 36.7546 22.7554 -2.42002 0.0788828 1 
38104 1 36.3507 21.2241 -0.016542 11.8508 5 
38105 1 36.4486 19.9137 -2.52441 0.0894284 1 
38106 1 35.8635 18.5182 -0.0954174 7.42682 5 
38107 1 33.9101 20.2327 -1.25754 6.00645 5 
38108 1 33.5501 17.3296 -1.21537 0.833685 5 
38109 1 31.1364 17.4542 0.0706341 9.20564 5 
38110 1 30.6131 14.7842 -0.246819 6.55466 5 
38138 1 46.7969 33.277 -10.6078 0.000581006 1 
38139 1 46.175 31.8576 -8.18885 0.00480402 1 
38140 1 46.4275 30.4533 -10.6966 0.000863771 1 
38141 1 45.8097 29.0352 -8.30219 0.00298234 1 
38142 1 43.8502 30.75 -9.46299 0.00170465 1 
38143 1 43.2276 29.331 -7.07219 0.00409564 1 
38144 1 43.4842 27.9178 -9.57073 0.000945011 1 
38145 1 42.8637 26.4882 -7.19372 0.00117459 1 
38146 1 40.9059 28.2119 -8.32878 0.00196048 1 
38147 1 40.2871 26.7771 -5.95612 0.00813402 1 
38148 1 40.5413 25.3665 -8.44261 0.000916675 1 
38149 1 39.9222 23.9187 -6.06982 0.00642927 1 
38150 1 37.966 25.6551 -7.18769 0.00176849 1 
38151 1 37.3382 24.2105 -4.79736 0.0133102 1 
38152 1 37.6031 22.8085 -7.29512 0.00132148 1 
38153 1 37.0023 21.3579 -4.90937 0.00892464 1 
38154 1 35.0404 23.0978 -6.0357 0.00481725 1 
38155 1 34.456 21.6467 -3.64809 0.0350483 1 
38156 1 34.6776 20.2448 -6.11963 0.0051159 1 
38157 1 34.0917 18.7936 -3.67942 0.0420383 1 
38158 1 32.127 20.5405 -4.84248 0.016302 1 
38159 1 31.5531 19.0819 -2.41842 0.185241 1 
38160 1 31.7861 17.7018 -4.95069 0.00693962 1 
38161 1 31.2361 16.244 -2.57244 0.117394 1 
38162 1 29.242 18.0123 -3.72683 0.0614729 1 
38163 1 28.6774 16.5919 -1.39536 5.57418 5 
38164 1 28.8512 15.1584 -3.801 0.0216818 1 
38165 1 28.2695 13.7148 -1.38522 0.876982 5 
38166 1 26.2626 15.4731 -2.55959 0.220832 1 
38167 1 25.8655 13.9781 -0.155402 7.44377 5 
38168 1 25.9232 12.631 -2.74311 0.177318 1 
38169 1 25.2112 11.2417 -0.454685 8.2552 5 
38170 1 23.2945 12.9288 -1.62632 6.36899 5 
38171 1 22.8048 10.0669 -1.43669 4.1298 5 
38172 1 20.1512 10.3725 -0.0792587 5.36256 5 
38173 1 19.9099 7.48319 -0.642141 7.66453 5 
38202 1 45.0847 33.6019 -14.2783 0.000106358 1 
38203 1 44.4691 32.172 -11.8709 0.00032003 1 
38204 1 44.7163 30.7709 -14.363 0.000120953 1 
38205 1 44.1012 29.3435 -11.962 0.000458055 1 
38206 1 42.1423 31.0643 -13.1296 0.000182728 1 
38207 1 41.525 29.637 -10.7249 0.000745752 1 
38208 1 41.7753 28.2322 -13.2201 0.000221133 1 
38209 1 41.1594 26.8019 -10.8255 0.000508594 1 
38210 1 39.2016 28.5251 -11.9799 0.000387997 1 
38211 1 38.585 27.0937 -9.57995 0.000791303 1 
38212 1 38.8358 25.6885 -12.0766 0.000244751 1 
38213 1 38.2195 24.2513 -9.68396 0.000438418 1 
38214 1 36.2655 25.9803 -10.8325 0.000356196 1 