ITEM: TIMESTEP
0
ITEM: NUMBER OF ATOMS
8912
ITEM: BOX BOUNDS xy xz yz pp pp ss
-1.5953487261699999e+02 1.4455720321000001e+02 -1.5953487261699999e+02
0.0000000000000000e+00 3.4442479863999999e+01 0.0000000000000000e+00
-1.2436146087894343e+02 1.3367828489263462e+02 0.0000000000000000e+00
ITEM: ATOMS id type x y z c_csym c_cna 
26 1 1.25798 1.18752 -14.8553 0.000137204 1 
27 1 1.19999 1.39884 -12.0056 0.000358664 1 
28 1 1.14993 1.61361 -9.16201 0.00150087 1 
29 1 1.11802 1.83772 -6.33031 0.00905882 1 
30 1 1.12281 2.0776 -3.50945 0.101667 1 
31 1 -14.9376 34.3458 -1.94337 5.28239 5 
32 1 1.04751 2.17509 -0.666854 8.35315 5 
254 1 6.19785 0.723651 -14.7393 9.31484e-05 1 
264 1 4.78073 3.20086 -14.9536 9.04548e-05 1 
265 1 2.27914 3.53952 -13.5898 0.000213171 1 
266 1 3.69751 1.06108 -13.3738 0.000139424 1 
267 1 4.72248 3.41543 -12.1098 0.000190661 1 
268 1 6.13785 0.938973 -11.8926 0.000221725 1 
269 1 3.64134 1.27558 -10.5261 0.000357964 1 
270 1 6.07848 1.15689 -9.04388 0.000823533 1 
274 1 0.858094 6.01853 -13.8015 0.000231456 1 
275 1 1.87878 8.37199 -12.5388 0.000392224 1 
276 1 3.30203 5.89356 -12.3276 0.000386739 1 
277 1 0.79891 6.234 -10.9567 0.00052015 1 
278 1 2.22314 3.75471 -10.7476 0.000734354 1 
279 1 3.24628 6.11287 -9.49226 0.00154256 1 
280 1 4.66797 3.63312 -9.26728 0.000712469 1 
281 1 2.17748 3.97715 -7.9139 0.004387 1 
282 1 3.59345 1.49543 -7.67586 0.00215046 1 
283 1 4.6213 3.85784 -6.41858 0.00499425 1 
284 1 6.01696 1.37819 -6.18533 0.00460114 1 
285 1 3.55655 1.72891 -4.81048 0.0319986 1 
286 1 5.92746 1.59217 -3.30362 0.0578265 1 
287 1 0.456952 10.8502 -12.7451 0.000345523 1 
288 1 0.393437 11.0675 -9.90168 0.000792478 1 
289 1 1.81853 8.5907 -9.70095 0.00103295 1 
290 1 0.747127 6.45689 -8.11305 0.00191796 1 
291 1 1.76555 8.81764 -6.86642 0.00418511 1 
292 1 3.20069 6.34298 -6.66359 0.00891804 1 
293 1 0.713951 6.69616 -5.25955 0.0226756 1 
294 1 2.15051 4.2132 -5.09796 0.0342429 1 
295 1 3.17972 6.58844 -3.84621 0.057124 1 
296 1 4.59152 4.10437 -3.54899 0.170405 1 
297 1 2.16568 4.45349 -2.30887 0.491175 1 
298 1 3.51535 2.03456 -1.84553 0.632897 1 
299 1 4.78654 4.53022 -0.492821 6.40636 5 
300 1 5.84341 1.87952 -0.361394 1.86403 5 
301 1 0.333219 11.2899 -7.05604 0.00256105 1 
302 1 0.293827 11.5159 -4.19858 0.0163804 1 
303 1 1.74622 9.06184 -4.04022 0.0328623 1 
304 1 0.727049 6.98266 -2.38222 1.59775 5 
305 1 1.75323 9.42023 -1.27612 4.01385 5 
306 1 3.13819 6.83037 -1.04661 4.13275 5 
307 1 0.293406 11.785 -1.32224 0.228792 1 
755 1 9.72752 2.73961 -14.825 9.78238e-05 1 
756 1 11.1443 0.262552 -14.617 0.000133089 1 
757 1 8.63979 0.602068 -13.257 0.000159299 1 
758 1 11.0826 0.483038 -11.7764 0.000349012 1 
781 1 5.80662 5.55422 -13.6858 0.000154353 1 
782 1 7.22443 3.07789 -13.4686 0.000112882 1 
783 1 8.25384 5.43235 -12.1966 0.000234793 1 
784 1 9.6685 2.95837 -11.9808 0.000251777 1 
785 1 7.16552 3.29505 -10.6249 0.00033273 1 
786 1 8.57717 0.821594 -10.4127 0.000460652 1 
787 1 9.60639 3.17965 -9.13593 0.000743632 1 
788 1 11.0154 0.708199 -8.93627 0.00112942 1 
789 1 8.51013 1.04499 -7.5646 0.00141768 1 
790 1 10.9394 0.940229 -6.09071 0.00486124 1 
805 1 2.96316 10.5107 -14.1146 0.000274753 1 
806 1 4.38553 8.03198 -13.9025 0.000262249 1 
807 1 5.41136 10.3863 -12.6383 0.000557718 1 
808 1 6.83491 7.90785 -12.4186 0.00037292 1 
809 1 4.32622 8.24876 -11.0688 0.000783551 1 
810 1 5.74914 5.77051 -10.8478 0.00038992 1 
811 1 6.77796 8.12495 -9.58819 0.00113239 1 
812 1 8.19599 5.65041 -9.3575 0.000756558 1 
813 1 5.69323 5.9899 -8.01282 0.00134112 1 
814 1 7.10529 3.51406 -7.77842 0.00146841 1 
815 1 8.1342 5.86919 -6.52365 0.00472535 1 
816 1 9.53915 3.40364 -6.28672 0.00241857 1 
817 1 7.03908 3.73126 -4.92183 0.0109384 1 
818 1 8.42914 1.27212 -4.70691 0.00394343 1 
819 1 9.46376 3.62919 -3.43296 0.0189707 1 
820 1 10.8432 1.18802 -3.23679 0.0258052 1 
821 1 8.32917 1.49071 -1.84886 0.0694518 1 
822 1 10.7929 1.45087 -0.365767 0.201346 1 
827 1 0.125131 15.4677 -14.529 0.000139365 1 
828 1 1.54267 12.9896 -14.3222 0.000210056 1 
829 1 2.56716 15.346 -13.0522 0.000258725 1 
830 1 3.98727 12.8665 -12.8488 0.000460294 1 
831 1 1.47841 13.2069 -11.4821 0.000528648 1 
832 1 2.90032 10.7279 -11.2797 0.000741111 1 
833 1 3.92157 13.0877 -10.0212 0.00139354 1 
834 1 5.35056 10.6053 -9.81473 0.0019231 1 
835 1 2.83632 10.951 -8.45135 0.00236328 1 
836 1 4.2692 8.47141 -8.24336 0.00293725 1 
837 1 5.28782 10.8327 -7.00577 0.00770188 1 
838 1 6.7209 8.34454 -6.7658 0.00454355 1 
839 1 4.22318 8.7084 -5.4271 0.0146418 1 
840 1 5.64242 6.21636 -5.17194 0.0171353 1 
841 1 6.66474 8.58547 -3.9494 0.192239 1 
842 1 8.05939 6.07863 -3.70774 0.0674907 1 
843 1 5.62762 6.53232 -2.29871 0.817799 5 
844 1 6.97176 3.93139 -2.0736 6.53503 5 
845 1 7.98044 6.21958 -0.877718 11.9691 5 
846 1 9.34598 3.80279 -0.540699 6.49123 5 
847 1 1.15096 17.8233 -13.257 0.000159299 1 
848 1 0.0623517 15.6843 -11.6839 0.000334923 1 
849 1 1.08833 18.0428 -10.4127 0.000460652 1 
850 1 2.5013 15.5675 -10.2145 0.000731224 1 
851 1 -0.00241081 15.9044 -8.83745 0.000944079 1 
852 1 1.41127 13.429 -8.64405 0.00155208 1 
853 1 2.42853 15.7957 -7.37642 0.00247044 1 
854 1 3.84892 13.3182 -7.20188 0.00474909 1 
855 1 1.34086 13.6582 -5.80316 0.00620858 1 
856 1 2.77696 11.1884 -5.62796 0.0114094 1 
857 1 3.76552 13.5716 -4.3868 0.0256823 1 
858 1 5.22375 11.0834 -4.2132 0.046686 1 
859 1 2.76528 11.4611 -2.79962 0.0762433 1 
860 1 4.24036 8.96694 -2.61585 0.18645 1 
861 1 5.22838 11.4004 -1.41464 1.15977 1 
862 1 6.8289 9.14413 -1.06961 5.85809 5 
863 1 1.0213 18.2662 -7.5646 0.00141768 1 
864 1 -0.0726218 16.129 -5.98476 0.00272049 1 
865 1 0.940306 18.4934 -4.70691 0.00394343 1 
866 1 2.341 16.0338 -4.53082 0.0110879 1 
867 1 1.26937 13.8997 -2.95058 0.0500422 1 
868 1 2.25598 16.292 -1.67022 0.103166 1 
869 1 3.69148 13.8942 -1.57837 6.59632 5 
870 1 1.29061 14.1907 -0.0234602 5.63663 5 
871 1 2.90246 11.8849 0.0338458 7.82367 5 
872 1 0.840335 18.7119 -1.84886 0.0694518 1 
1528 1 13.2583 4.75245 -14.8936 0.000194003 1 
1529 1 14.6759 2.27444 -14.6873 0.000199514 1 
1530 1 12.1727 2.61841 -13.3349 0.000216117 1 
1531 1 13.5905 0.139844 -13.1328 0.000337526 1 
1532 1 14.6184 2.49608 -11.8445 0.000482192 1 
1533 1 16.04 0.0137777 -11.6467 0.000950848 1 
1534 1 13.5271 0.363478 -10.2995 0.000884837 1 
1535 1 15.9754 0.23676 -8.82345 0.00209682 1 
1566 1 9.3407 7.56852 -13.7618 0.000246289 1 
1567 1 10.7574 5.09396 -13.544 0.000220447 1 
1568 1 11.7897 7.44692 -12.2556 0.000650253 1 
1569 1 13.2031 4.97346 -12.0441 0.000538265 1 
1570 1 10.7006 5.31397 -10.6986 0.000588726 1 
1571 1 12.1117 2.84116 -10.4911 0.000604757 1 
1572 1 13.1439 5.19735 -9.19424 0.00160255 1 
1573 1 14.5542 2.7218 -9.0048 0.00122123 1 
1574 1 12.0442 3.0678 -7.6439 0.00210712 1 
1575 1 13.4556 0.594639 -7.47138 0.0026953 1 
1576 1 14.4796 2.95439 -6.16195 0.00550276 1 
1577 1 15.8985 0.466938 -6.0086 0.00303665 1 
1578 1 13.3791 0.845261 -4.64688 0.0148255 1 
1579 1 15.8201 0.719182 -3.1921 0.0349508 1 
1602 1 6.49714 12.5242 -14.2019 0.000388486 1 
1603 1 7.9203 10.0449 -13.9838 0.000344304 1 
1604 1 8.94974 12.3973 -12.7108 0.000853183 1 
1605 1 10.3726 9.91963 -12.4817 0.000689308 1 
1606 1 7.86482 10.2608 -11.1523 0.0010886 1 
1607 1 9.28652 7.78556 -10.9211 0.000679363 1 
1608 1 10.3204 10.1342 -9.64131 0.00223688 1 
1609 1 11.7362 7.66694 -9.40364 0.00199683 1 
1610 1 9.23057 8.00397 -8.08373 0.00211409 1 
1611 1 10.6401 5.53569 -7.85328 0.00175058 1 
1612 1 11.676 7.88732 -6.5462 0.00583824 1 
1613 1 13.0769 5.42228 -6.34242 0.00603546 1 
1614 1 10.5698 5.76184 -5.00677 0.0093557 1 
1615 1 11.9721 3.30167 -4.78326 0.0127039 1 
1616 1 12.9846 5.65682 -3.48671 0.0647414 1 
1617 1 14.4049 3.2094 -3.29131 0.0681183 1 
1618 1 11.8656 3.56019 -1.90019 0.0858045 1 
1619 1 13.2744 1.13855 -1.83834 0.074956 1 
1620 1 14.2852 3.55457 -0.391636 1.70875 5 
1621 1 15.6706 1.0556 -0.418015 0.228173 1 
1636 1 3.65546 17.4838 -14.617 0.000133089 1 
1637 1 5.07472 15.0047 -14.4116 0.000246937 1 
1638 1 6.10169 17.3611 -13.1328 0.000337526 1 
1639 1 7.52437 14.8794 -12.928 0.000675195 1 
1640 1 5.01232 15.225 -11.579 0.000653896 1 
1641 1 6.43747 12.7423 -11.3748 0.00127298 1 
1642 1 7.46274 15.1004 -10.1056 0.00192882 1 
1643 1 8.89362 12.6127 -9.88841 0.00327547 1 
1644 1 6.37168 12.9655 -8.56356 0.00482378 1 
1645 1 7.80665 10.4775 -8.33259 0.00447138 1 
1646 1 8.8287 12.8294 -7.09036 0.0168647 1 
1647 1 10.2615 10.347 -6.79982 0.0107244 1 
1648 1 7.74135 10.6988 -5.53086 0.0375277 1 
1649 1 9.17135 8.22506 -5.25199 0.0234193 1 
1650 1 10.1694 10.5419 -3.93807 0.340852 1 
1651 1 11.6228 8.10248 -3.66551 0.110681 1 
1652 1 9.07277 8.36864 -2.46302 6.87656 5 
1653 1 10.4809 5.9682 -2.15776 0.107496 1 
1654 1 11.3909 8.26772 -0.750039 5.58982 5 
1655 1 12.8345 5.93795 -0.601769 0.521475 5 
1663 1 2.23868 19.9608 -14.825 9.78238e-05 1 
1664 1 3.26853 22.3152 -13.544 0.000220447 1 
1665 1 4.68384 19.8397 -13.3349 0.000216117 1 
1666 1 2.17967 20.1796 -11.9808 0.000251777 1 
1667 1 3.59374 17.7043 -11.7764 0.000349012 1 
1668 1 4.62286 20.0624 -10.4911 0.000604757 1 
1669 1 6.03828 17.5847 -10.2995 0.000884837 1 
1670 1 3.52657 17.9294 -8.93627 0.00112942 1 
1671 1 4.94303 15.4514 -8.75443 0.00182708 1 
1672 1 5.96677 17.8159 -7.47138 0.0026953 1 
1673 1 7.39086 15.3292 -7.29795 0.00441865 1 
1674 1 4.8639 15.6906 -5.93823 0.00754657 1 
1675 1 6.29288 13.2016 -5.77392 0.0216055 1 
1676 1 7.30309 15.5705 -4.49966 0.0170835 1 
1677 1 8.74269 13.0653 -4.33531 0.161219 1 
1678 1 6.16433 13.4873 -2.99874 0.122842 1 
1679 1 7.66798 11.028 -2.77254 1.49581 5 
1680 1 8.51074 13.4616 -1.63955 4.03172 5 
1681 1 9.69676 10.5042 -0.934211 11.2281 5 
1683 1 0.431469 27.2661 -13.9838 0.000344304 1 
1684 1 1.85186 24.7898 -13.7618 0.000246289 1 
1685 1 0.765007 22.6536 -12.1966 0.000234793 1 
1686 1 1.79769 25.0068 -10.9211 0.000679363 1 
1687 1 3.21174 22.5352 -10.6986 0.000588726 1 
1688 1 0.707152 22.8717 -9.3575 0.000756558 1 
1689 1 2.11756 20.4009 -9.13593 0.000743632 1 
1690 1 3.15123 22.7569 -7.85328 0.00175058 1 
1691 1 4.5554 20.289 -7.6439 0.00210712 1 
1692 1 2.05031 20.6249 -6.28672 0.00241857 1 
1693 1 3.45056 18.1615 -6.09071 0.00486124 1 
1694 1 4.48329 20.5229 -4.78326 0.0127039 1 
1695 1 5.89023 18.0665 -4.64688 0.0148255 1 
1696 1 3.35436 18.4093 -3.23679 0.0258052 1 
1697 1 4.76347 15.9735 -3.13967 0.0407508 1 
1698 1 5.78555 18.3598 -1.83834 0.074956 1 
1699 1 7.14001 15.8742 -1.71621 0.106694 1 
1700 1 4.69458 16.2788 -0.344305 5.04951 5 
1701 1 5.95 13.789 -0.0929952 8.87129 5 
1702 1 0.375984 27.482 -11.1523 0.0010886 1 
1703 1 0.317818 27.6987 -8.33259 0.00447138 1 
1704 1 1.74173 25.2252 -8.08373 0.00211409 1 
1705 1 0.645366 23.0904 -6.52365 0.00472535 1 
1706 1 1.68251 25.4463 -5.25199 0.0234193 1 
1707 1 3.08096 22.9831 -5.00677 0.0093557 1 
1708 1 0.570559 23.2999 -3.70774 0.0674907 1 
1709 1 1.97492 20.8504 -3.43296 0.0189707 1 
1710 1 2.99207 23.1894 -2.15776 0.107496 1 
1711 1 4.37674 20.7814 -1.90019 0.0858045 1 
1712 1 1.85715 21.024 -0.540699 6.49123 5 
1713 1 3.3041 18.6721 -0.365767 0.201346 1 
1714 1 0.252519 27.9201 -5.53086 0.0375277 1 
1715 1 0.179143 28.2493 -2.77254 1.49581 5 
1716 1 1.58394 25.5899 -2.46302 6.87656 5 
1717 1 0.491606 23.4408 -0.877718 11.9691 5 
2524 1 19.6221 1.79719 -14.5353 0.000451663 1 
2573 1 16.7814 6.75818 -14.9497 0.000265772 1 
2574 1 18.2003 4.27886 -14.7444 0.000264179 1 
2575 1 15.7032 4.62766 -13.3936 0.000359434 1 
2576 1 17.1231 2.1471 -13.1917 0.000517241 1 
2577 1 18.1477 4.49807 -11.8912 0.00075921 1 
2578 1 19.572 2.01402 -11.6888 0.00156377 1 
2579 1 17.0661 2.36781 -10.3532 0.00134756 1 
2580 1 19.5187 2.23022 -8.85436 0.00639411 1 
2581 1 18.4303 0.0944936 -7.34309 0.0102309 1 
2582 1 -138.648 34.3601 -5.83575 0.0997914 1 
2625 1 12.8721 9.57868 -13.8152 0.000572771 1 
2626 1 14.2873 7.10457 -13.5985 0.000522096 1 
2627 1 15.3151 9.45303 -12.2924 0.00141447 1 
2628 1 16.7287 6.97797 -12.0875 0.000742309 1 
2629 1 14.2347 7.32593 -10.7383 0.00169043 1 
2630 1 15.6472 4.85012 -10.5428 0.000998108 1 
2631 1 16.6733 7.1994 -9.21878 0.00238428 1 
2632 1 18.0922 4.71773 -9.04127 0.00267833 1 
2633 1 15.5844 5.07561 -7.6941 0.00338536 1 
2634 1 16.9985 2.58933 -7.52522 0.00353949 1 
2635 1 18.0261 4.93449 -6.19921 0.0103631 1 
2636 1 19.4519 2.4397 -6.04452 0.027274 1 
2637 1 16.9138 2.82128 -4.70566 0.020997 1 
2638 1 18.3527 0.331034 -4.56219 0.0547971 1 
2639 1 19.3717 2.69117 -3.24557 0.713338 5 
2640 1 20.7847 0.0446307 -3.11406 0.561962 1 
2641 1 18.2896 0.559003 -1.7988 0.284994 1 
2642 1 20.705 0.163318 -0.436921 5.4292 5 
2675 1 10.0313 14.5335 -14.2669 0.000549439 1 
2676 1 11.4536 12.0539 -14.0426 0.000590203 1 
2677 1 12.4825 14.4022 -12.7568 0.00131148 1 
2678 1 13.9017 11.9256 -12.5191 0.00125393 1 
2679 1 11.4045 12.2675 -11.2005 0.00217055 1 
2680 1 12.8229 9.79596 -10.9576 0.00187149 1 
2681 1 13.8549 12.1387 -9.65221 0.00459442 1 
2682 1 15.2636 9.67168 -9.41297 0.00511241 1 
2683 1 12.7712 10.0125 -8.09238 0.00657949 1 
2684 1 14.1782 7.54934 -7.86972 0.00564945 1 
2685 1 15.2058 9.88779 -6.51057 0.0211506 1 
2686 1 16.6119 7.42259 -6.33776 0.0105007 1 
2687 1 14.1058 7.76855 -4.99111 0.0250879 1 
2688 1 15.5224 5.29678 -4.85545 0.0259535 1 
2689 1 16.5363 7.63996 -3.46125 1.64038 5 
2690 1 17.9915 5.1665 -3.33794 0.447523 5 
2691 1 15.4238 5.52968 -2.07033 6.6986 5 
2692 1 16.8752 3.06168 -1.87542 0.114487 1 
2693 1 17.8989 5.39027 -0.558264 6.97565 5 
2694 1 19.3663 2.91756 -0.466308 5.76705 5 
2719 1 7.18705 19.4957 -14.6873 0.000199514 1 
2720 1 8.60793 17.0151 -14.481 0.000364917 1 
2721 1 9.63426 19.3683 -13.1917 0.000517241 1 
2722 1 11.0583 16.885 -12.9822 0.000960804 1 
2723 1 8.55116 17.235 -11.6467 0.000950848 1 
2724 1 9.97838 14.7496 -11.4349 0.00182672 1 
2725 1 11.0049 17.1013 -10.1517 0.00311394 1 
2726 1 12.4345 14.6123 -9.91793 0.00567489 1 
2727 1 9.91949 14.965 -8.62172 0.00689159 1 
2728 1 11.352 12.4751 -8.36903 0.0101086 1 
2729 1 12.3781 14.8101 -7.09957 0.0304632 1 
2730 1 13.8037 12.3471 -6.77083 0.0214999 1 
2731 1 11.2831 12.6686 -5.55776 0.0591851 1 
2732 1 12.7022 10.2225 -5.2153 0.0355813 1 
2733 1 13.7199 12.5274 -3.86446 0.123299 1 
2734 1 15.1123 10.0863 -3.57091 0.0932013 1 
2735 1 12.5252 10.403 -2.31128 0.368193 1 
2736 1 14.0575 7.99694 -2.02616 5.83211 5 
2737 1 15.1252 10.3298 -0.600581 4.93629 5 
2738 1 17.2523 8.23846 0.325929 9.96518 5 
2756 1 5.76944 21.9737 -14.8936 0.000194003 1 
2757 1 6.79843 24.3258 -13.5985 0.000522096 1 
2758 1 8.21436 21.8489 -13.3936 0.000359434 1 
2759 1 5.71431 22.1947 -12.0441 0.000538265 1 
2760 1 7.12956 19.7173 -11.8445 0.000482192 1 
2761 1 8.1584 22.0714 -10.5428 0.000998108 1 
2762 1 9.57723 19.589 -10.3532 0.00134756 1 
2763 1 7.06535 19.943 -9.0048 0.00122123 1 
2764 1 8.48655 17.458 -8.82345 0.00209682 1 
2765 1 9.50963 19.8106 -7.52522 0.00353949 1 
2766 1 10.9415 17.3157 -7.34309 0.0102309 1 
2767 1 8.40964 17.6882 -6.0086 0.00303665 1 
2768 1 9.84781 15.1869 -5.83958 0.034458 1 
2769 1 10.8639 17.5523 -4.56219 0.0547971 1 
2770 1 12.2927 14.969 -4.31864 0.183246 1 
2771 1 9.74727 15.445 -3.10115 0.233513 1 
2772 1 11.1245 12.8312 -2.78064 0.576033 1 
2773 1 12.143 15.1161 -1.61225 1.00088 1 
2774 1 13.4754 12.5981 -0.93354 4.97653 5 
2775 1 10.6568 13.038 -0.152357 9.32418 5 
2786 1 3.96481 29.2751 -14.0426 0.000590203 1 
2787 1 5.38324 26.7999 -13.8152 0.000572771 1 
2788 1 2.88373 27.1409 -12.4817 0.000689308 1 
2789 1 4.30087 24.6682 -12.2556 0.000650253 1 
2790 1 5.33405 27.0172 -10.9576 0.00187149 1 
2791 1 6.74586 24.5472 -10.7383 0.00169043 1 
2792 1 4.24741 24.8882 -9.40364 0.00199683 1 
2793 1 5.65507 22.4186 -9.19424 0.00160255 1 
2794 1 6.68935 24.7706 -7.86972 0.00564945 1 
2795 1 8.09552 22.2968 -7.6941 0.00338536 1 
2796 1 5.5881 22.6435 -6.34242 0.00603546 1 
2797 1 6.99077 20.1756 -6.16195 0.00550276 1 
2798 1 8.03352 22.518 -4.85545 0.0259535 1 
2799 1 9.42501 20.0425 -4.70566 0.020997 1 
2800 1 6.91606 20.4306 -3.29131 0.0681183 1 
2801 1 8.33122 17.9404 -3.1921 0.0349508 1 
2802 1 9.38634 20.2829 -1.87542 0.114487 1 
2803 1 10.8007 17.7802 -1.7988 0.284994 1 
2804 1 8.18179 18.2768 -0.418015 0.228173 1 
2805 1 9.51747 15.851 -0.407206 5.46321 5 
2808 1 -143.438 34.2364 -14.481 0.000364917 1 
2809 1 -142.015 31.7547 -14.2669 0.000549439 1 
2810 1 -144.522 32.1007 -12.928 0.000675195 1 
2811 1 1.46091 29.6186 -12.7108 0.000853183 1 
2812 1 -142.068 31.9708 -11.4349 0.00182672 1 
2813 1 3.91564 29.4887 -11.2005 0.00217055 1 
2814 1 1.40478 29.834 -9.88841 0.00327547 1 
2815 1 2.83153 27.3555 -9.64131 0.00223688 1 
2816 1 3.86317 29.6964 -8.36903 0.0101086 1 
2817 1 5.2824 27.2337 -8.09238 0.00657949 1 
2818 1 2.7727 27.5683 -6.79982 0.0107244 1 
2819 1 4.1872 25.1086 -6.5462 0.00583824 1 
2820 1 5.21341 27.4438 -5.2153 0.0355813 1 
2821 1 6.61697 24.9898 -4.99111 0.0250879 1 
2822 1 4.13393 25.3237 -3.66551 0.110681 1 
2823 1 5.49579 22.8781 -3.48671 0.0647414 1 
2824 1 6.5687 25.2182 -2.02616 5.83211 5 
2825 1 7.93498 22.7509 -2.07033 6.6986 5 
2826 1 5.34569 23.1592 -0.601769 0.521475 5 
2827 1 6.79633 20.7758 -0.391636 1.70875 5 
2828 1 -144.583 32.3217 -10.1056 0.00192882 1 
2829 1 -142.127 32.1863 -8.62172 0.00689159 1 
2830 1 1.33986 30.0507 -7.09036 0.0168647 1 
2831 1 -142.198 32.4082 -5.83958 0.034458 1 
2832 1 3.79423 29.8899 -5.55776 0.0591851 1 
2833 1 1.25385 30.2865 -4.33531 0.161219 1 
2834 1 2.68059 27.7632 -3.93807 0.340852 1 
2835 1 3.63563 30.0524 -2.78064 0.576033 1 
2836 1 5.03632 27.6243 -2.31128 0.368193 1 
2837 1 2.20792 27.7255 -0.934211 11.2281 5 
2838 1 3.90208 25.489 -0.750039 5.58982 5 
2839 1 -142.299 32.6663 -3.10115 0.233513 1 
2840 1 1.0219 30.6829 -1.63955 4.03172 5 
2841 1 -142.529 33.0722 -0.407206 5.46321 5 
2842 1 3.16801 30.2593 -0.152357 9.32418 5 
3735 1 23.1331 3.79345 -14.5891 0.000334631 1 
3736 1 24.5531 1.31121 -14.3652 0.000485798 1 
3737 1 22.0666 1.66095 -13.0231 0.00109823 1 
3738 1 24.5046 1.51942 -11.4914 0.00192669 1 
3788 1 21.7118 6.27592 -14.8014 0.000190208 1 
3789 1 19.2212 6.62701 -13.4435 0.00034676 1 
3790 1 20.6429 4.14524 -13.2382 0.000514323 1 
3791 1 21.6581 6.48938 -11.9356 0.000474614 1 
3792 1 23.0824 4.00413 -11.7265 0.00128799 1 
3793 1 20.5914 4.36067 -10.3793 0.00182534 1 
3794 1 22.0203 1.87092 -10.1694 0.00552301 1 
3795 1 23.0312 4.20917 -8.86646 0.00777843 1 
3796 1 24.4587 1.72253 -8.60316 0.0106398 1 
3797 1 21.9701 2.07164 -7.32975 0.0344771 1 
3798 1 24.412 1.92307 -5.6852 0.0791511 1 
3841 1 16.3896 11.5809 -13.8585 0.000886459 1 
3842 1 17.8036 9.10536 -13.646 0.000528411 1 
3843 1 18.8222 11.4478 -12.3373 0.000945379 1 
3844 1 20.2376 8.9709 -12.1357 0.000505408 1 
3845 1 17.7499 9.32238 -10.7688 0.00144221 1 
3846 1 19.1671 6.84434 -10.5783 0.000993819 1 
3847 1 20.1806 9.18336 -9.25528 0.00137288 1 
3848 1 21.602 6.69852 -9.06474 0.00134064 1 
3849 1 19.1099 7.05924 -7.71063 0.0042168 1 
3850 1 20.535 4.57341 -7.51292 0.0130872 1 
3851 1 21.5424 6.89785 -6.18418 0.0127968 1 
3852 1 22.9772 4.39466 -6.0227 0.0729469 1 
3853 1 20.4724 4.78168 -4.63299 0.482625 5 
3854 1 21.8933 2.2413 -4.52366 0.281919 1 
3855 1 22.8669 4.5156 -3.21694 2.20102 5 
3856 1 24.3583 2.16015 -2.67343 5.4693 5 
3857 1 21.715 2.29903 -1.7746 7.67566 5 
3858 1 -136.271 34.2228 -1.29288 3.73249 5 
3859 1 22.9855 1.56675 0.704816 11.2838 5 
3891 1 13.5557 16.536 -14.3161 0.000656836 1 
3892 1 14.975 14.0566 -14.0863 0.000682606 1 
3893 1 15.9978 16.4001 -12.7905 0.00108316 1 
3894 1 17.4111 13.9226 -12.5546 0.00161517 1 
3895 1 14.9293 14.2684 -11.22 0.00230124 1 
3896 1 16.3398 11.7954 -10.9778 0.00319703 1 
3897 1 17.3609 14.1314 -9.66073 0.00611536 1 
3898 1 18.7661 11.6591 -9.44501 0.00224178 1 
3899 1 16.2866 12.0068 -8.07684 0.0121527 1 
3900 1 17.6926 9.53755 -7.87685 0.00383858 1 
3901 1 18.7047 11.8649 -6.53485 0.00559105 1 
3902 1 20.122 9.38882 -6.36432 0.00614309 1 
3903 1 17.6296 9.74783 -4.96512 0.0235636 1 
3904 1 19.0509 7.26122 -4.8499 0.0302107 1 
3905 1 20.0618 9.55975 -3.4632 0.0783745 1 
3906 1 21.4768 7.08428 -3.26711 1.44999 5 
3907 1 18.9865 7.42676 -1.94804 4.39634 5 
3908 1 20.7759 5.19893 -1.29519 11.7198 5 
3909 1 22.2075 7.67278 -0.0200958 2.53976 5 
3910 1 23.2451 4.04129 -0.541594 10.5392 5 
3933 1 10.7115 21.5001 -14.7444 0.000264179 1 
3934 1 12.1333 19.0184 -14.5353 0.000451663 1 
3935 1 13.154 21.3665 -13.2382 0.000514323 1 
3936 1 14.5778 18.8822 -13.0231 0.00109823 1 
3937 1 12.0832 19.2353 -11.6888 0.00156377 1 
3938 1 13.509 16.7486 -11.4668 0.00263131 1 
3939 1 14.5315 19.0922 -10.1694 0.00552301 1 
3940 1 15.9533 16.6081 -9.91777 0.00425639 1 
3941 1 13.4606 16.9545 -8.63193 0.013921 1 
3942 1 14.8842 14.4754 -8.34593 0.009004 1 
3943 1 15.9101 16.81 -7.03549 0.0214427 1 
3944 1 17.306 14.3328 -6.73925 0.0234718 1 
3945 1 14.8303 14.6743 -5.4584 0.0434249 1 
3946 1 16.2222 12.2054 -5.14035 0.0489923 1 
3947 1 17.2382 14.5253 -3.78383 0.0978933 1 
3948 1 18.6476 12.0389 -3.60583 0.0312696 1 
3949 1 16.1637 12.3808 -2.16962 0.338072 1 
3950 1 17.5411 9.8835 -2.01796 3.99175 5 
3951 1 18.7034 12.2376 -0.729411 7.90918 5 
3952 1 19.9949 9.54306 -0.563339 9.31054 5 
3968 1 9.29256 23.9794 -14.9497 0.000265772 1 
3969 1 10.3148 26.3266 -13.646 0.000528411 1 
3970 1 11.7323 23.8483 -13.4435 0.00034676 1 
3971 1 9.23989 24.1992 -12.0875 0.000742309 1 
3972 1 10.6589 21.7193 -11.8912 0.00075921 1 
3973 1 11.6783 24.0656 -10.5783 0.000993819 1 
3974 1 13.1025 21.5819 -10.3793 0.00182534 1 
3975 1 10.6034 21.939 -9.04127 0.00267833 1 
3976 1 12.0299 19.4515 -8.85436 0.00639411 1 
3977 1 13.0462 21.7946 -7.51292 0.0130872 1 
3978 1 14.4812 19.2929 -7.32975 0.0344771 1 
3979 1 11.9631 19.6609 -6.04452 0.027274 1 
3980 1 13.3985 17.1389 -5.83575 0.0997914 1 
3981 1 14.4044 19.4625 -4.52366 0.281919 1 
3982 1 15.8593 17.0114 -4.13319 0.185046 1 
3983 1 13.2959 17.2659 -3.11406 0.561962 1 
3984 1 14.7416 14.7968 -2.55006 0.283445 1 
3985 1 15.7752 17.0015 -1.29288 3.73249 5 
3986 1 17.2167 14.666 -0.712485 5.48429 5 
3987 1 14.3841 14.7315 0.338526 7.1087 5 
3996 1 -137.071 31.2778 -14.0863 0.000682606 1 
3997 1 8.90079 28.8021 -13.8585 0.000886459 1 
3998 1 6.41284 29.1468 -12.5191 0.00125393 1 
3999 1 7.82625 26.6743 -12.2924 0.00141447 1 
4000 1 8.85095 29.0167 -10.9778 0.00319703 1 
4001 1 10.2611 26.5436 -10.7688 0.00144221 1 
4002 1 7.77477 26.8929 -9.41297 0.00511241 1 
4003 1 9.18446 24.4206 -9.21878 0.00238428 1 
4004 1 10.2037 26.7588 -7.87685 0.00383858 1 
4005 1 11.621 24.2805 -7.71063 0.0042168 1 
4006 1 9.12302 24.6438 -6.33776 0.0105007 1 
4007 1 10.5373 22.1557 -6.19921 0.0103631 1 
4008 1 11.5621 24.4825 -4.8499 0.0302107 1 
4009 1 12.9835 22.0029 -4.63299 0.482625 5 
4010 1 10.5026 22.3877 -3.33794 0.447523 5 
4011 1 11.8829 19.9124 -3.24557 0.713338 5 
4012 1 13.2871 22.4202 -1.29519 11.7198 5 
4013 1 14.2262 19.5203 -1.7746 7.67566 5 
4014 1 11.8774 20.1388 -0.466308 5.76705 5 
4015 1 13.2161 17.3846 -0.436921 5.4292 5 
4017 1 -138.49 33.7573 -14.3161 0.000656836 1 
4018 1 -140.988 34.1062 -12.9822 0.000960804 1 
4019 1 -139.564 31.6234 -12.7568 0.00131148 1 
4020 1 -138.537 33.9698 -11.4668 0.00263131 1 
4021 1 -137.117 31.4896 -11.22 0.00230124 1 
4022 1 -139.612 31.8335 -9.91793 0.00567489 1 
4023 1 6.36605 29.3599 -9.65221 0.00459442 1 
4024 1 -137.162 31.6966 -8.34593 0.009004 1 
4025 1 8.79778 29.2281 -8.07684 0.0121527 1 
4026 1 6.31486 29.5684 -6.77083 0.0214999 1 
4027 1 7.71697 27.109 -6.51057 0.0211506 1 
4028 1 -135.824 29.4267 -5.14035 0.0489923 1 
4029 1 10.1407 26.9691 -4.96512 0.0235636 1 
4030 1 7.62344 27.3075 -3.57091 0.0932013 1 
4031 1 9.04742 24.8612 -3.46125 1.64038 5 
4032 1 10.0523 27.1047 -2.01796 3.99175 5 
4033 1 11.4977 24.648 -1.94804 4.39634 5 
4034 1 9.76342 25.4597 0.325929 9.96518 5 
4035 1 10.4101 22.6115 -0.558264 6.97565 5 
4036 1 -141.041 34.3225 -10.1517 0.00311394 1 
4037 1 -138.585 34.1757 -8.63193 0.013921 1 
4038 1 -139.668 32.0313 -7.09957 0.0304632 1 
4039 1 -137.216 31.8955 -5.4584 0.0434249 1 
4040 1 -139.753 32.1903 -4.31864 0.183246 1 
4041 1 6.23106 29.7487 -3.86446 0.123299 1 
4042 1 -137.304 32.0181 -2.55006 0.283445 1 
4043 1 -135.882 29.6021 -2.16962 0.338072 1 
4044 1 5.98661 29.8193 -0.93354 4.97653 5 
4045 1 7.63637 27.551 -0.600581 4.93629 5 
4046 1 -139.903 32.3373 -1.61225 1.00088 1 
4047 1 -137.662 31.9527 0.338526 7.1087 5 
4908 1 29.4671 0.827789 -14.217 0.000393784 1 
4961 1 26.6349 5.78849 -14.6606 0.000166484 1 
4962 1 28.0523 3.30668 -14.4391 0.000277886 1 
4963 1 25.5675 3.653 -13.0761 0.000488946 1 
4964 1 26.9835 1.1717 -12.8459 0.000834321 1 
4965 1 27.9961 3.51077 -11.5649 0.000806027 1 
4966 1 29.4087 1.0326 -11.3362 0.00102263 1 
4967 1 26.9293 1.37437 -9.95635 0.00285307 1 
4968 1 29.3497 1.23271 -8.44432 0.00282653 1 
5014 1 25.2155 8.27099 -14.8747 0.000119587 1 
5015 1 22.726 8.61987 -13.5048 0.000220392 1 
5016 1 24.1471 6.13717 -13.2973 0.000317587 1 
5017 1 25.1585 8.47984 -12.0082 0.000344813 1 
5018 1 26.5793 5.9946 -11.7934 0.000495304 1 
5019 1 24.0928 6.34433 -10.4314 0.00127997 1 
5020 1 25.5156 3.85635 -10.2015 0.00179451 1 
5021 1 26.5257 6.19523 -8.92529 0.00205657 1 
5022 1 27.9411 3.70896 -8.68338 0.0027726 1 
5023 1 25.4668 4.05208 -7.31702 0.0094908 1 
5024 1 26.8735 1.57181 -7.04573 0.0107612 1 
5025 1 27.8906 3.9031 -5.79279 0.0164226 1 
5026 1 29.2913 1.43175 -5.5407 0.0079454 1 
5027 1 26.8085 1.77413 -4.10619 0.0583688 1 
5028 1 29.2381 1.64145 -2.62438 0.0581503 1 
5067 1 19.8929 13.5761 -13.9168 0.000678198 1 
5068 1 21.3077 11.0993 -13.7085 0.000322377 1 
5069 1 22.3205 13.4397 -12.4115 0.000525606 1 
5070 1 23.7376 10.9617 -12.2095 0.000385923 1 
5071 1 21.2501 11.3099 -10.8269 0.00069454 1 
5072 1 22.6688 8.82953 -10.6316 0.000596081 1 
5073 1 23.6776 11.1676 -9.33074 0.00138691 1 
5074 1 25.1025 8.68434 -9.14282 0.0017509 1 
5075 1 22.6087 9.03189 -7.75238 0.00284735 1 
5076 1 24.0382 6.54265 -7.57094 0.0093429 1 
5077 1 25.0494 8.87754 -6.29052 0.0170071 1 
5078 1 26.478 6.38895 -6.05789 0.0189289 1 
5079 1 23.9774 6.71086 -4.73726 0.134424 1 
5080 1 25.4269 4.25745 -4.4078 0.16631 1 
5081 1 26.4667 6.6346 -3.18863 0.461914 1 
5082 1 27.9101 4.10599 -2.91127 0.212721 1 
5083 1 25.6455 4.54645 -1.48269 8.63823 5 
5084 1 26.7473 2.00684 -1.08337 4.06717 5 
5085 1 27.8782 4.33498 0.267739 4.38296 5 
5086 1 29.2903 1.9161 0.261255 3.85747 5 
5116 1 17.0642 18.5324 -14.3652 0.000485798 1 
5117 1 18.4798 16.0529 -14.1375 0.000649781 1 
5118 1 19.4947 18.3929 -12.8459 0.000834321 1 
5119 1 20.9073 15.9155 -12.6224 0.000792925 1 
5120 1 18.4285 16.2606 -11.2529 0.00219151 1 
5121 1 19.8371 13.7853 -11.0278 0.00215167 1 
5122 1 20.8493 16.1196 -9.72984 0.00190061 1 
5123 1 22.2603 13.6458 -9.52382 0.00110814 1 
5124 1 19.7777 13.9898 -8.11997 0.0074456 1 
5125 1 21.1901 11.5156 -7.93495 0.00134052 1 
5126 1 22.1976 13.8465 -6.62676 0.00298772 1 
5127 1 23.6157 11.3633 -6.44395 0.0088559 1 
5128 1 21.1301 11.7082 -5.0347 0.00682964 1 
5129 1 22.548 9.21372 -4.86101 0.0434967 1 
5130 1 23.5812 11.5649 -3.5573 0.186812 1 
5131 1 25.0099 9.0292 -3.48342 0.352593 1 
5132 1 22.5423 9.52343 -1.97347 2.75974 5 
5133 1 23.883 6.71648 -1.97918 4.99946 5 
5134 1 24.943 8.89816 -0.775309 8.11012 5 
5135 1 26.8778 6.88951 -0.32374 10.7611 5 
5154 1 14.223 23.4972 -14.8014 0.000190208 1 
5155 1 15.6443 21.0147 -14.5891 0.000334631 1 
5156 1 16.6583 23.3584 -13.2973 0.000317587 1 
5157 1 18.0787 20.8742 -13.0761 0.000488946 1 
5158 1 15.5936 21.2254 -11.7265 0.00128799 1 
5159 1 17.0157 18.7407 -11.4914 0.00192669 1 
5160 1 18.0268 21.0776 -10.2015 0.00179451 1 
5161 1 19.4405 18.5956 -9.95635 0.00285307 1 
5162 1 16.9698 18.9438 -8.60316 0.0106398 1 
5163 1 18.3765 16.4628 -8.34968 0.0078174 1 
5164 1 19.3847 18.7931 -7.04573 0.0107612 1 
5165 1 20.7876 16.3178 -6.82202 0.00443332 1 
5166 1 18.3181 16.6605 -5.41941 0.0277688 1 
5167 1 19.71 14.1857 -5.18272 0.0344302 1 
5168 1 20.7248 16.5217 -3.90832 0.0104206 1 
5169 1 22.1362 14.0404 -3.73464 0.0173475 1 
5170 1 19.6559 14.3913 -2.23086 1.45771 5 
5171 1 21.1165 11.8895 -2.14333 0.382474 1 
5172 1 22.0629 14.2042 -0.815062 3.72202 5 
5173 1 23.793 11.9884 -0.552222 6.51486 5 
5186 1 -130.738 28.3206 -13.7085 0.000322377 1 
5187 1 15.2372 25.8411 -13.5048 0.000220392 1 
5188 1 12.7488 26.1921 -12.1357 0.000505408 1 
5189 1 14.1693 23.7106 -11.9356 0.000474614 1 
5190 1 15.18 26.0508 -10.6316 0.000596081 1 
5191 1 16.604 23.5656 -10.4314 0.00127997 1 
5192 1 14.1131 23.9198 -9.06474 0.00134064 1 
5193 1 15.5423 21.4304 -8.86646 0.00777843 1 
5194 1 16.5494 23.7639 -7.57094 0.0093429 1 
5195 1 17.9779 21.2733 -7.31702 0.0094908 1 
5196 1 15.4884 21.6159 -6.0227 0.0729469 1 
5197 1 16.9231 19.1443 -5.6852 0.0791511 1 
5198 1 17.938 21.4787 -4.4078 0.16631 1 
5199 1 19.3197 18.9954 -4.10619 0.0583688 1 
5200 1 16.8695 19.3814 -2.67343 5.4693 5 
5201 1 18.2537 16.8676 -2.4522 0.252445 1 
5202 1 19.2585 19.2281 -1.08337 4.06717 5 
5203 1 20.6598 16.7766 -1.02163 3.57026 5 
5204 1 18.0214 17.1308 0.587202 7.93509 5 
5209 1 -133.566 33.2741 -14.1375 0.000649781 1 
5210 1 -132.153 30.7973 -13.9168 0.000678198 1 
5211 1 -134.635 31.1439 -12.5546 0.00161517 1 
5212 1 11.3334 28.669 -12.3373 0.000945379 1 
5213 1 -132.209 31.0065 -11.0278 0.00215167 1 
5214 1 -130.796 28.5311 -10.8269 0.00069454 1 
5215 1 -133.28 28.8804 -9.44501 0.00224178 1 
5216 1 12.6918 26.4046 -9.25528 0.00137288 1 
5217 1 -130.856 28.7368 -7.93495 0.00134052 1 
5218 1 15.1199 26.2531 -7.75238 0.00284735 1 
5219 1 12.6331 26.6101 -6.36432 0.00614309 1 
5220 1 14.0535 24.1191 -6.18418 0.0127968 1 
5221 1 15.0592 26.435 -4.86101 0.0434967 1 
5222 1 16.4885 23.9321 -4.73726 0.134424 1 
5223 1 13.988 24.3055 -3.26711 1.44999 5 
5224 1 15.3781 21.7368 -3.21694 2.20102 5 
5225 1 16.3942 23.9377 -1.97918 4.99946 5 
5226 1 18.1567 21.7677 -1.48269 8.63823 5 
5227 1 15.7563 21.2625 -0.541594 10.5392 5 
5228 1 15.4966 18.788 0.704816 11.2838 5 
5229 1 -136.048 33.6214 -12.7905 0.00108316 1 
5230 1 -133.617 33.4818 -11.2529 0.00219151 1 
5231 1 -136.093 33.8293 -9.91777 0.00425639 1 