ITEM: TIMESTEP
0
ITEM: NUMBER OF ATOMS
4226
ITEM: BOX BOUNDS xy xz yz pp pp ss
0.0000000000000000e+00 7.2737929598999997e+01 2.0872623275999999e+01
0.0000000000000000e+00 4.5720002160999996e+01 0.0000000000000000e+00
-9.2933724628369930e+01 9.7661700788015864e+01 0.0000000000000000e+00
ITEM: ATOMS id type x y z c_csym c_cna 
27168 3 53.9229 42.3538 -0.868893 9.67529 5 
27167 3 53.7643 44.1543 0.992218 9.29442 5 
8313 1 50.1836 2.24521 -14.6208 7.99852e-05 1 
27166 3 64.364 43.4689 0.498806 10.7307 5 
27165 3 59.7267 40.0837 -0.174974 6.81408 5 
27164 3 58.3067 36.311 -0.811241 9.86981 5 
8993 1 50.8193 17.392 -14.8867 2.57756e-05 1 
8999 1 43.2321 2.55489 -13.7642 4.86223e-05 1 
9000 1 43.2304 5.24399 -14.7481 5.73191e-05 1 
9003 1 45.7572 5.70309 -13.4911 8.93788e-05 1 
9004 1 45.7578 8.39513 -14.4742 4.25803e-05 1 
9007 1 48.2868 8.85778 -13.2176 5.46584e-05 1 
9008 1 48.2886 11.5507 -14.195 4.28934e-05 1 
9009 1 50.5017 9.82195 -14.7582 3.67491e-05 1 
9011 1 50.8183 12.0137 -12.9344 0.000102015 1 
9012 1 50.8194 14.7032 -13.9091 6.18429e-05 1 
9013 1 64.1072 45.5865 -12.7801 3.88512e-05 1 
9014 1 45.444 0.825613 -14.3274 5.93684e-05 1 
9015 1 45.7598 0.323462 -11.5189 0.000220236 1 
9016 1 45.758 3.01277 -12.5064 0.000106733 1 
9017 1 47.9697 1.28256 -13.072 0.000138126 1 
9018 1 47.97 3.97473 -14.056 6.84638e-05 1 
9019 1 48.2837 3.47067 -11.255 0.00027093 1 
9020 1 48.2846 6.16401 -12.2384 0.000143582 1 
9021 1 50.4982 4.43457 -12.8049 0.000156285 1 
9022 1 50.5001 7.12911 -13.7822 7.75801e-05 1 
9023 1 50.8137 6.6269 -10.9903 0.000536382 1 
9024 1 50.8166 9.32205 -11.9621 0.000275506 1 
9025 1 48.2835 0.778962 -10.266 0.00060453 1 
9026 1 50.4961 1.73942 -11.8239 0.000335638 1 
9027 1 50.8076 1.23183 -9.02946 0.00167815 1 
9028 1 50.8109 3.92927 -10.0132 0.000816789 1 
27163 3 55.6617 30.4555 0.409369 11.6833 5 
27162 3 58.2947 33.59 0.0424137 8.01525 5 
9632 1 36.2761 8.24218 -14.8939 2.28204e-05 1 
9636 1 38.8025 11.3901 -14.6123 2.72285e-05 1 
9640 1 41.3311 14.5408 -14.3345 5.05316e-05 1 
9644 1 43.8638 17.6976 -14.0519 9.14843e-05 1 
9648 1 46.396 20.8519 -13.7617 0.000128094 1 
9649 1 46.3967 23.5405 -14.7397 7.553e-05 1 
9652 1 48.9237 23.9992 -13.4758 4.41641e-05 1 
9653 1 48.9251 26.6867 -14.4569 3.72804e-05 1 
9656 1 51.452 27.1435 -13.197 0.000159284 1 
9657 1 51.4538 29.8311 -14.1831 8.31023e-05 1 
9659 1 33.7524 2.40405 -14.2002 9.20171e-05 1 
9660 1 35.9667 0.676113 -14.7541 5.9618e-05 1 
9662 1 36.2828 2.86226 -12.9295 8.64163e-05 1 
9663 1 36.279 5.5517 -13.9118 3.97772e-05 1 
9664 1 38.4929 3.82408 -14.468 2.98163e-05 1 
9666 1 38.8074 6.0097 -12.6445 3.54722e-05 1 
9667 1 38.8043 8.6997 -13.6292 3.71015e-05 1 
9668 1 41.0178 6.97147 -14.1873 6.48061e-05 1 
9670 1 41.3314 9.15728 -12.3675 0.000102243 1 
9671 1 41.3303 11.8485 -13.3524 7.584e-05 1 
9672 1 43.5444 10.122 -13.913 5.58518e-05 1 
9673 1 43.5453 12.8148 -14.8945 3.42257e-05 1 
9674 1 43.8587 12.3101 -12.0964 0.00019064 1 
9675 1 43.8614 15.0044 -13.0752 0.000108266 1 
9676 1 46.0754 13.2783 -13.635 9.13678e-05 1 
9677 1 46.0771 15.9706 -14.6115 6.58947e-05 1 
9678 1 46.3935 15.4716 -11.8139 0.000515734 1 
9679 1 46.3948 18.1627 -12.787 0.000216127 1 
9680 1 48.6074 16.433 -13.3459 0.000165656 1 
9681 1 48.6073 19.1221 -14.324 5.30918e-05 1 
9682 1 48.9243 18.6235 -11.5189 0.000297035 1 
9683 1 48.9234 21.311 -12.4954 0.000103304 1 
9684 1 51.135 19.5803 -13.0604 4.15445e-05 1 
9685 1 51.1345 22.2685 -14.0409 3.22033e-05 1 
9686 1 51.4489 21.7675 -11.2331 0.000115741 1 
9687 1 51.4498 24.4565 -12.2158 0.000144231 1 
9688 1 36.2864 0.174053 -11.9474 0.000225699 1 
9689 1 38.4957 1.13518 -13.4857 2.66305e-05 1 
9690 1 38.8128 0.631914 -10.6775 0.000216631 1 
9691 1 38.8114 3.321 -11.66 8.29486e-05 1 
9692 1 41.023 1.59497 -12.2184 0.000154466 1 
9693 1 41.0205 4.28233 -13.2008 0.000236373 1 
9694 1 41.34 3.78053 -10.3847 0.00224984 1 
9695 1 41.3347 6.46737 -11.3783 0.000298717 1 
9696 1 43.5462 4.74091 -11.9398 0.000248409 1 
9697 1 43.5446 7.43018 -12.9278 0.000115961 1 
9698 1 43.8606 6.92666 -10.1201 0.000512512 1 
9699 1 43.8584 9.61671 -11.1116 0.000263766 1 
9700 1 46.0721 7.89092 -11.6738 0.000200696 1 
9701 1 46.0734 10.5845 -12.6565 0.000116994 1 
9702 1 46.3876 10.0798 -9.86143 0.000883169 1 
9703 1 46.3896 12.7766 -10.8414 0.000661882 1 
9704 1 48.6039 11.0504 -11.3967 0.000215794 1 
9705 1 48.6064 13.7434 -12.3718 0.000315395 1 
9706 1 48.9234 13.2483 -9.57467 0.00331746 1 
9707 1 48.9259 15.9356 -10.5384 0.00214933 1 
9708 1 51.136 14.2051 -11.1045 0.000429286 1 
9709 1 51.1352 16.892 -12.0807 0.000107288 1 
9710 1 51.4495 16.3922 -9.26956 0.00106189 1 
9711 1 51.4513 19.0799 -10.2527 0.000218595 1 
9712 1 41.3398 1.0963 -9.41024 0.0025513 1 
9713 1 43.5492 2.05484 -10.9555 0.000284334 1 
9714 1 43.8677 1.56295 -8.14869 0.00549342 1 
9715 1 43.8643 4.24188 -9.12442 0.0015399 1 
9716 1 46.0747 2.51288 -9.69885 0.000504147 1 
9717 1 46.0718 5.19981 -10.6864 0.000390126 1 
9718 1 46.391 4.70082 -7.87623 0.00153782 1 
9719 1 46.3876 7.38734 -8.87297 0.00103806 1 
9720 1 48.5979 5.661 -9.44086 0.000843798 1 
9721 1 48.601 8.35571 -10.4205 0.000305168 1 
9722 1 48.9127 7.85488 -7.62217 0.00477457 1 
9723 1 48.9196 10.5503 -8.59924 0.00225114 1 
9724 1 51.1307 8.82471 -9.17503 0.00416467 1 
9725 1 51.1332 11.5173 -10.136 0.000706721 1 
9726 1 51.4463 11.0256 -7.34121 0.00407515 1 
9727 1 51.4525 13.7108 -8.29332 0.00359965 1 
9728 1 66.9508 45.545 -8.7052 0.0017635 1 
9729 1 46.3989 2.02437 -6.88954 0.00473863 1 
9730 1 48.6011 0.281644 -7.45241 0.00310891 1 
9731 1 48.5998 2.96852 -8.45117 0.00172565 1 
9732 1 48.9246 2.48392 -5.63206 0.0166964 1 
9733 1 48.9178 5.15931 -6.64137 0.00918385 1 
9734 1 51.1252 3.42018 -7.22666 0.00901529 1 
9735 1 51.125 6.12386 -8.21024 0.00647647 1 
9736 1 51.4617 5.61844 -5.45711 0.129762 1 
9737 1 51.4334 8.33252 -6.41939 0.061322 1 
9738 1 69.809 45.5012 -4.63296 0.0260485 1 
9739 1 51.1205 0.721874 -6.23759 0.00725457 1 
9740 1 51.4349 0.204882 -3.44266 0.0470605 1 
9741 1 51.4421 2.8975 -4.44295 0.0465973 1 
27161 3 53.9237 27.9417 0.934109 8.49617 5 
27160 3 59.6696 44.7668 0.228432 8.87749 5 
27159 3 56.1337 40.8074 -1.12692 5.35499 5 
27158 3 56.1203 37.9628 -0.376286 7.22106 5 
10230 1 39.4427 26.5354 -14.8912 0.000135279 1 
10234 1 41.9756 29.6852 -14.6012 7.93333e-05 1 
10238 1 44.5038 32.8297 -14.3193 7.16041e-05 1 
10242 1 47.0306 35.974 -14.0494 0.000144888 1 
10246 1 49.5606 39.1234 -13.7861 0.00015612 1 
10247 1 49.5599 41.8166 -14.7714 9.96191e-05 1 
10251 1 24.2521 2.24545 -14.6343 6.42872e-05 1 
10255 1 26.7853 5.40069 -14.3534 6.36453e-05 1 
10259 1 29.3169 8.55278 -14.0644 5.13713e-05 1 
10263 1 31.8454 11.7008 -13.776 2.61422e-05 1 
10264 1 31.8444 14.3899 -14.7532 1.62516e-05 1 
10267 1 34.373 14.8465 -13.4904 7.94042e-05 1 
10268 1 34.372 17.5358 -14.473 4.90943e-05 1 
10271 1 36.9005 17.9922 -13.2159 0.000175915 1 
10272 1 36.9028 20.6859 -14.1985 0.000125133 1 
10273 1 39.1182 18.9594 -14.7567 9.31194e-05 1 
10275 1 39.4351 21.148 -12.9415 0.000352769 1 
10276 1 39.4396 23.8434 -13.9165 0.000234576 1 
10277 1 41.6535 22.1166 -14.4718 0.000144764 1 
10279 1 41.9742 24.3093 -12.6479 0.000540154 1 
10280 1 41.9764 26.9981 -13.6213 0.000282062 1 
10281 1 44.1868 25.2697 -14.1792 0.000158043 1 
10283 1 44.507 27.4583 -12.3476 0.000371724 1 
10284 1 44.5064 30.1441 -13.3324 0.000102956 1 
10285 1 46.7157 28.4157 -13.8922 0.000109109 1 
10286 1 46.7154 31.102 -14.878 8.79461e-05 1 
10287 1 47.0353 30.6025 -12.0648 0.000290312 1 
10288 1 47.0337 33.2869 -13.0553 0.000334346 1 
10289 1 49.2438 31.5595 -13.618 0.000112923 1 
10290 1 49.2437 34.2467 -14.6074 0.000149164 1 
10291 1 49.5629 33.7437 -11.7974 0.000614686 1 
10292 1 49.5616 36.4317 -12.7945 0.000296238 1 
10294 1 26.7838 0.0129918 -12.4048 0.000232609 1 
10295 1 26.7848 2.70738 -13.3799 0.000111114 1 
10296 1 29.0033 0.979869 -13.9376 0.000165373 1 
10297 1 29.0025 3.67246 -14.9126 8.9313e-05 1 
10298 1 29.3197 3.1704 -12.1214 0.000531754 1 
10299 1 29.318 5.86219 -13.0925 0.000174997 1 
10300 1 31.5361 4.1325 -13.6471 0.000124887 1 
10301 1 31.5331 6.82328 -14.6242 6.00475e-05 1 
10302 1 31.85 6.31944 -11.8269 0.000308043 1 
10303 1 31.8469 9.01051 -12.8008 6.86372e-05 1 
10304 1 34.0637 7.28065 -13.3579 6.84988e-05 1 
10305 1 34.0609 9.97153 -14.3364 2.69625e-05 1 
10306 1 34.3764 9.46743 -11.5359 0.000137969 1 
10307 1 34.3745 12.1583 -12.5121 9.59031e-05 1 
10308 1 36.5898 10.4286 -13.0717 3.62593e-05 1 
10309 1 36.5879 13.1184 -14.0525 2.89066e-05 1 
10310 1 36.9028 12.6145 -11.2483 0.000248386 1 
10311 1 36.9006 15.3015 -12.2295 0.00025472 1 
10312 1 39.1159 13.575 -12.7915 0.000104318 1 
10313 1 39.1162 16.266 -13.7747 0.000125856 1 
10314 1 39.4279 15.7564 -10.9724 0.000819713 1 
10315 1 39.4306 18.4509 -11.9612 0.000505558 1 
10316 1 41.6465 16.728 -12.5167 0.000240791 1 
10317 1 41.6503 19.423 -13.4954 0.000171818 1 
10318 1 41.9648 18.918 -10.7033 0.000922087 1 
10319 1 41.9704 21.6159 -11.6764 0.000746572 1 
10320 1 44.1833 19.8902 -12.2281 0.000433741 1 
10321 1 44.1854 22.5807 -13.2021 0.000281453 1 
10322 1 44.5041 22.0838 -10.3957 0.00185511 1 
10323 1 44.5058 24.7725 -11.3713 0.000678165 1 
10324 1 46.7133 23.0419 -11.9312 0.000251535 1 
10325 1 46.7151 25.7295 -12.9103 0.000144204 1 
10326 1 47.031 25.232 -10.0975 0.000527987 1 
10327 1 47.034 27.9176 -11.0777 0.000335441 1 
10328 1 49.2413 26.1877 -11.647 5.46838e-05 1 
10329 1 49.2429 28.8735 -12.6305 8.97105e-05 1 
10330 1 49.5606 28.3764 -9.81757 0.00035931 1 
10331 1 49.5632 31.0604 -10.8054 0.000284591 1 
10332 1 29.3197 0.476259 -11.1513 0.000934738 1 
10333 1 31.539 1.4425 -12.6722 0.000310585 1 
10334 1 31.8587 0.942915 -9.87874 0.00234094 1 
10335 1 31.8557 3.62908 -10.8465 0.00134734 1 
10336 1 34.0725 1.90153 -11.3968 0.000436102 1 
10337 1 34.0676 4.58952 -12.3763 0.000181122 1 
10338 1 34.3851 4.08097 -9.56671 0.00185774 1 
10339 1 34.3806 6.77399 -10.5578 0.000397518 1 
10340 1 36.5967 5.04594 -11.1052 0.000164606 1 
10341 1 36.5931 7.7376 -12.0901 8.51786e-05 1 
10342 1 36.9112 7.23042 -9.28632 0.000520882 1 
10343 1 36.9062 9.92466 -10.2687 0.000291992 1 
10344 1 39.1214 8.19588 -10.8227 0.000173113 1 
10345 1 39.1176 10.8853 -11.8071 0.000154831 1 
10346 1 39.4346 10.382 -8.9963 0.001547 1 
10347 1 39.4293 13.0688 -9.98475 0.000779493 1 
10348 1 41.6433 11.3421 -10.5488 0.000417396 1 
10349 1 41.6438 14.0341 -11.5353 0.000292487 1 
10350 1 41.9534 13.525 -8.7361 0.00176431 1 
10351 1 41.9574 16.2185 -9.72229 0.00165253 1 
10352 1 44.1743 14.5007 -10.2819 0.000553716 1 
10353 1 44.1789 17.1966 -11.2551 0.000423604 1 
10354 1 44.492 16.6959 -8.46614 0.00206877 1 
10355 1 44.5018 19.3941 -9.42999 0.00289363 1 
10356 1 46.712 17.6683 -9.98876 0.00180252 1 
10357 1 46.7137 20.3548 -10.9547 0.000732745 1 
10358 1 47.0328 19.8623 -8.13856 0.00622089 1 
10359 1 47.0267 22.5429 -9.11762 0.00140726 1 
10360 1 49.2385 20.8101 -9.68361 0.00104016 1 
10361 1 49.2373 23.4991 -10.6678 0.000296459 1 
10362 1 49.5448 22.9928 -7.86411 0.00450601 1 
10363 1 49.5567 25.6897 -8.83926 0.00189879 1 
10364 1 34.3907 1.39962 -8.58684 0.00286396 1 
10365 1 36.6009 2.35726 -10.12 0.000380148 1 
10366 1 36.9122 1.84892 -7.30401 0.00407979 1 
10367 1 36.9135 4.53526 -8.2952 0.00171788 1 
10368 1 39.1301 2.81707 -8.85271 0.00242674 1 
10369 1 39.1262 5.50599 -9.83606 0.000220559 1 
10370 1 39.4498 5.0017 -7.03278 0.00696875 1 
10371 1 39.4426 7.6948 -8.01495 0.00152999 1 
10372 1 41.6565 5.96566 -8.56248 0.00273993 1 
10373 1 41.6481 8.65361 -9.56 0.000494748 1 
10374 1 41.9722 8.1591 -6.74786 0.00413172 1 
10375 1 41.9564 10.8373 -7.73815 0.002403 1 
10376 1 44.1741 9.11248 -8.30719 0.00129896 1 
10377 1 44.1693 11.8038 -9.30135 0.00118222 1 
10378 1 44.4794 11.2941 -6.50789 0.00665371 1 
10379 1 44.4816 13.9958 -7.49788 0.00346808 1 
10380 1 46.7 12.2716 -8.06105 0.00555118 1 
10381 1 46.7101 14.9753 -9.02688 0.00602423 1 
10382 1 47.0144 14.4764 -6.2719 0.0619797 1 
10383 1 47.0296 17.182 -7.2054 0.0185719 1 
10384 1 49.2481 15.4418 -7.7136 0.0330378 1 
10385 1 49.243 18.128 -8.71146 0.00360336 1 
10386 1 49.5702 17.646 -5.90042 0.0414901 1 
10387 1 49.5537 20.3078 -6.85637 0.0119396 1 
10388 1 39.1231 0.123152 -7.87127 0.00472349 1 
10389 1 39.4359 2.30264 -6.06068 0.0361032 1 
10390 1 41.6472 0.599255 -6.62037 0.0347924 1 
10391 1 41.6649 3.28284 -7.55008 0.0295544 1 
10392 1 41.9694 2.80302 -4.68594 6.32582 5 
10393 1 42.0026 5.48236 -5.73723 0.031043 1 
10394 1 44.1909 3.75525 -6.2967 0.0131768 1 
10395 1 44.185 6.4298 -7.30483 0.00252824 1 
10396 1 44.5369 5.93662 -4.47387 0.0212066 1 
10397 1 44.4971 8.61318 -5.49059 0.00838177 1 
10398 1 46.711 6.88671 -6.06808 0.00621605 1 
10399 1 46.7041 9.5728 -7.06913 0.00719657 1 
10400 1 47.014 9.07032 -4.27598 0.0536298 1 
10401 1 47.0167 11.7556 -5.30515 0.0581926 1 
10402 1 49.2407 10.0595 -5.793 0.0368404 1 
10403 1 49.237 12.7582 -6.78932 0.0352472 1 
10404 1 49.6103 12.3097 -4.00949 1.20467 5 
10405 1 49.5558 14.9689 -4.84823 1.08483 5 
10406 1 41.9874 0.119182 -3.8846 1.97206 5 
10407 1 44.1823 1.09407 -5.36862 0.0735965 1 
10408 1 44.5618 0.636367 -2.65894 3.29258 5 
10409 1 44.5064 3.26977 -3.43074 2.08135 5 
10410 1 46.7387 1.55031 -4.08926 0.0640167 1 
10411 1 46.7181 4.21198 -5.05093 0.01264 1 
10412 1 47.0915 3.72357 -2.2514 1.99531 5 
10413 1 47.0707 6.41056 -3.24679 0.0954601 1 
10414 1 49.2572 4.71187 -3.82093 0.188016 1 
10415 1 49.2308 7.35207 -4.81663 0.136068 1 
10416 1 49.7309 6.99508 -1.83954 4.37153 5 
10417 1 49.4878 9.57855 -3.00105 6.10869 5 
10418 1 47.1843 1.08325 -1.20882 4.00726 5 
10419 1 49.2683 1.94562 -2.82429 0.101153 1 
27157 3 53.5162 34.8832 -0.344274 9.67807 5 
27156 3 62.604 27.4385 -0.152127 7.1944 5 
27155 3 60.0231 24.236 0.2258 12.296 5 
27154 3 58.066 21.687 0.670322 8.56237 5 
10767 1 42.5938 44.8129 -14.9069 4.77138e-05 1 
10790 1 24.8882 17.3864 -14.888 3.53126e-05 1 
10794 1 27.4165 20.5339 -14.6064 1.42396e-05 1 
10798 1 29.9453 23.6814 -14.3298 3.9735e-05 1 
10802 1 32.478 26.8327 -14.0557 5.95306e-05 1 
10806 1 35.0145 29.9882 -13.7749 0.000130381 1 
10807 1 35.0149 32.6784 -14.752 6.8793e-05 1 
10810 1 37.5483 33.1398 -13.4857 0.000190257 1 
10811 1 37.544 35.827 -14.4687 3.72996e-05 1 
10814 1 40.0743 36.285 -13.206 6.8789e-05 1 
10815 1 40.0692 38.9735 -14.1931 3.65568e-05 1 
10816 1 42.2852 37.2449 -14.7513 4.40004e-05 1 
10818 1 42.5985 39.4315 -12.9367 7.45367e-05 1 
10819 1 42.5952 42.1219 -13.9238 7.13194e-05 1 
10820 1 44.8118 40.3926 -14.4833 7.06675e-05 1 
10822 1 45.1251 42.58 -12.6725 0.000155865 1 
10823 1 45.124 45.2723 -13.6553 0.000106706 1 
10824 1 47.342 43.5442 -14.2155 0.000114446 1 
10829 1 17.2925 2.54925 -13.777 4.53734e-05 1 
10830 1 17.293 5.23984 -14.7584 4.29259e-05 1 
10833 1 19.8213 5.69976 -13.5048 7.94417e-05 1 
10834 1 19.8236 8.39209 -14.4831 4.06046e-05 1 
10837 1 22.3543 8.85521 -13.2272 7.63396e-05 1 
10838 1 22.3566 11.5473 -14.2002 5.75238e-05 1 
10839 1 24.5707 9.82054 -14.7641 5.46328e-05 1 
10841 1 24.8874 12.0105 -12.9385 0.000159246 1 
10842 1 24.8882 14.6986 -13.9106 7.93062e-05 1 
10843 1 27.1016 12.9712 -14.4758 3.75444e-05 1 
10845 1 27.4164 15.1576 -12.647 7.21148e-05 1 
10846 1 27.4161 17.8454 -13.6255 1.84644e-05 1 
10847 1 29.6297 16.1181 -14.1898 1.74904e-05 1 
10849 1 29.9436 18.3039 -12.3644 6.90562e-05 1 
10850 1 29.9442 20.9915 -13.3451 0.000142567 1 
10851 1 32.1574 19.2641 -13.9105 4.47234e-05 1 
10852 1 32.1586 21.9541 -14.8924 5.24963e-05 1 
10853 1 32.4708 21.4482 -12.089 0.000265147 1 
10854 1 32.4741 24.1398 -13.0743 0.000103231 1 
10855 1 34.6878 22.4126 -13.637 0.000136021 1 
10856 1 34.692 25.1061 -14.6169 7.7508e-05 1 
10857 1 35.0046 24.5998 -11.8226 0.000324705 1 
10858 1 35.0109 27.2952 -12.7996 0.000189478 1 
10859 1 37.2253 25.5697 -13.3587 0.000191754 1 
10860 1 37.2289 28.2621 -14.3332 0.000113047 1 
10861 1 37.5469 27.7622 -11.5384 0.000427716 1 
10862 1 37.5502 30.4531 -12.5092 0.000379436 1 
10863 1 39.7636 28.7265 -13.0667 0.000290903 1 
10864 1 39.7626 31.413 -14.0433 0.000133671 1 
10865 1 40.0855 30.9163 -11.2351 0.000767938 1 
10866 1 40.0804 33.5987 -12.217 0.000293171 1 
10867 1 42.2945 31.8722 -12.775 0.000112471 1 
10868 1 42.2897 34.5573 -13.7623 6.51816e-05 1 
10869 1 42.6114 34.0573 -10.9516 0.000197859 1 
10870 1 42.6046 36.743 -11.9453 0.000129801 1 
10871 1 44.8204 35.0151 -12.5007 0.000112444 1 
10872 1 44.8153 37.7025 -13.4937 9.53516e-05 1 
10873 1 45.1361 37.2022 -10.6883 0.000287157 1 
10874 1 45.1288 39.8893 -11.6831 0.000189689 1 
10875 1 47.3464 38.1597 -12.2395 0.000268953 1 
10876 1 47.3432 40.8509 -13.2308 0.000169219 1 
10877 1 47.6604 40.3461 -10.4353 0.000622511 1 
10878 1 47.657 43.0386 -11.4248 0.000398829 1 
10879 1 49.8776 41.3113 -11.9797 0.00039662 1 
10880 1 49.8766 44.006 -12.9612 0.000277717 1 
10881 1 50.1932 43.5 -10.1776 0.00143917 1 
10882 1 38.1652 45.579 -12.7944 4.66537e-05 1 
10883 1 19.506 0.821192 -14.3427 4.24654e-05 1 
10884 1 19.8195 0.317847 -11.5421 9.81981e-05 1 
10885 1 19.8199 3.00831 -12.5248 8.84981e-05 1 
10886 1 22.0348 1.28037 -13.0912 8.15931e-05 1 
10887 1 22.036 3.97293 -14.0706 5.66451e-05 1 
10888 1 22.3489 3.46752 -11.2761 0.000158097 1 
10889 1 22.3512 6.1613 -12.2534 0.000131149 1 
10890 1 24.5672 4.43445 -12.8184 0.000124918 1 
10891 1 24.5692 7.1284 -13.7915 8.8206e-05 1 
10892 1 24.8833 6.62455 -11.0019 0.000455676 1 
10893 1 24.8863 9.31961 -11.9695 0.000342962 1 
10894 1 27.1016 7.59114 -12.5315 0.000194561 1 
10895 1 27.1018 10.2817 -13.5017 6.39883e-05 1 
10896 1 27.418 9.77977 -10.701 0.00090167 1 
10897 1 27.4169 12.47 -11.6749 0.000208104 1 
10898 1 29.6311 10.74 -12.238 4.72183e-05 1 
10899 1 29.6307 13.4297 -13.2129 3.16933e-05 1 
10900 1 29.9453 12.9268 -10.4111 0.000161513 1 
10901 1 29.9438 15.6155 -11.385 6.1682e-05 1 
10902 1 32.1596 13.8872 -11.9498 8.73877e-05 1 
10903 1 32.1577 16.5752 -12.9289 3.38354e-05 1 
10904 1 32.4718 16.0727 -10.124 0.000246926 1 
10905 1 32.4704 18.7603 -11.106 0.00024469 1 
10906 1 34.685 17.0296 -11.6684 0.000226624 1 
10907 1 34.685 19.7201 -12.6547 0.000165854 1 
10908 1 34.9958 19.2122 -9.8526 0.000762395 1 
10909 1 34.9976 21.9039 -10.8395 0.000651185 1 
10910 1 37.2136 20.1768 -11.4042 0.000575412 1 
10911 1 37.219 22.8738 -12.3839 0.000360737 1 
10912 1 37.5267 22.3636 -9.59823 0.00172134 1 
10913 1 37.5389 25.0654 -10.5706 0.000649134 1 
10914 1 39.754 23.3401 -11.1282 0.00137457 1 
10915 1 39.7614 26.0366 -12.0955 0.000850011 1 
10916 1 40.0785 25.5386 -9.31303 0.00759789 1 
10917 1 40.0844 28.2323 -10.2691 0.00202485 1 
10918 1 42.2984 26.5014 -10.8131 0.00240261 1 
10919 1 42.2974 29.1877 -11.7938 0.000297751 1 
10920 1 42.6204 28.6926 -8.98518 0.00255946 1 
10921 1 42.6175 31.3752 -9.96225 0.000362886 1 
10922 1 44.8283 29.6463 -10.5188 0.000261685 1 
10923 1 44.8259 32.3305 -11.5075 0.000186323 1 
10924 1 45.1519 31.8354 -8.69329 0.00151169 1 
10925 1 45.1451 34.5183 -9.69067 0.000601322 1 
10926 1 47.3579 32.7884 -10.2362 0.00205016 1 
10927 1 47.3518 35.4717 -11.2402 0.00058936 1 
10928 1 47.6823 34.9761 -8.42214 0.00410505 1 
10929 1 47.6691 37.659 -9.43599 0.00101375 1 
10930 1 49.8831 35.9281 -9.98849 0.00116968 1 
10931 1 49.8798 38.618 -10.9898 0.000588509 1 
10932 1 50.2042 38.1149 -8.19257 0.00237573 1 
10933 1 50.1962 40.8043 -9.19311 0.00190657 1 
10934 1 22.3477 0.775954 -10.2943 0.000233586 1 
10935 1 24.5653 1.74013 -11.8426 0.000211206 1 
10936 1 24.8771 1.23228 -9.05365 0.000936837 1 
10937 1 24.88 3.92737 -10.0303 0.0005437 1 
10938 1 27.0987 2.20249 -10.5932 0.000309438 1 
10939 1 27.1003 4.89776 -11.5626 0.000169129 1 
10940 1 27.4133 4.39231 -8.77733 0.000641912 1 
10941 1 27.4173 7.08971 -9.73951 0.00167932 1 
10942 1 29.6337 5.36113 -10.3015 0.00130452 1 
10943 1 29.6326 8.0503 -11.2656 0.000319485 1 
10944 1 29.9461 7.54596 -8.46122 0.00371165 1 
10945 1 29.9427 10.234 -9.43519 0.000837523 1 
10946 1 32.16 8.5039 -10.003 0.000477759 1 
10947 1 32.1592 11.197 -10.9759 0.000234103 1 
10948 1 32.4675 10.6883 -8.1841 0.00339645 1 
10949 1 32.4753 13.3846 -9.14778 0.00117549 1 
10950 1 34.6891 11.6565 -9.71168 0.00158767 1 
10951 1 34.6885 14.3428 -10.6815 0.000878527 1 
10952 1 35.0069 13.8423 -7.85976 0.012502 1 
10953 1 34.9995 16.5237 -8.85668 0.00179369 1 
10954 1 37.2139 14.7948 -9.4173 0.00183579 1 
10955 1 37.2113 17.4819 -10.4146 0.000808185 1 
10956 1 37.5226 16.9696 -7.60616 0.00324639 1 
10957 1 37.5209 19.6628 -8.61331 0.00260459 1 
10958 1 39.7403 17.9359 -9.16899 0.00264124 1 
10959 1 39.7467 20.6382 -10.1564 0.00199761 1 
10960 1 40.0539 20.1168 -7.38583 0.0109574 1 
10961 1 40.0617 22.8305 -8.35929 0.00972189 1 
10962 1 42.2874 21.1157 -8.89157 0.00520168 1 
10963 1 42.2924 23.8136 -9.85186 0.00376981 1 
10964 1 42.6051 23.32 -7.0647 0.0231655 1 
10965 1 42.6209 26.0051 -7.99028 0.0301041 1 
10966 1 44.8217 24.277 -8.55943 0.00420506 1 
10967 1 44.8264 26.96 -9.52821 0.0023678 1 
10968 1 45.1381 26.4592 -6.69052 0.0229214 1 
10969 1 45.1519 29.1499 -7.70324 0.00192814 1 
10970 1 47.3505 27.4223 -8.25842 0.0024098 1 
10971 1 47.358 30.108 -9.2458 0.00165935 1 
10972 1 47.6874 29.6264 -6.42193 0.0180071 1 
10973 1 47.692 32.2992 -7.40004 0.0188755 1 
10974 1 49.8875 30.5689 -7.9905 0.00236072 1 
10975 1 49.8872 33.2446 -8.97735 0.00304895 1 
10976 1 50.222 32.7529 -6.13554 0.024362 1 
10977 1 50.2156 35.431 -7.17406 0.00449534 1 
10978 1 27.4075 1.69744 -7.81283 0.00223826 1 
10979 1 50.5033 45.6894 -8.37946 0.00727817 1 
10980 1 29.6362 2.66819 -9.33969 0.00523621 1 
10981 1 29.9379 2.16634 -6.58215 0.0526401 1 
10982 1 29.9463 4.86 -7.52241 0.0105051 1 
10983 1 32.1763 3.12332 -8.03126 0.0205386 1 
10984 1 32.1657 5.81243 -9.03173 0.00279066 1 
10985 1 32.4781 5.30782 -6.24018 0.0245412 1 
10986 1 32.4673 7.98908 -7.20729 0.00448523 1 
10987 1 34.6968 6.25963 -7.7614 0.00358978 1 
10988 1 34.69 8.95999 -8.74139 0.00137926 1 
10989 1 34.9972 8.43676 -5.96633 0.0225043 1 
10990 1 35 11.1588 -6.92895 0.0258689 1 
10991 1 37.2245 9.41881 -7.47083 0.00313133 1 
10992 1 37.2192 12.1149 -8.44524 0.00438301 1 
10993 1 37.5386 11.6229 -5.66067 0.0586351 1 
10994 1 37.5263 14.2906 -6.58424 0.0161019 1 
10995 1 39.7451 12.5659 -7.1672 0.00812112 1 
10996 1 39.737 15.2427 -8.16017 0.00525692 1 
10997 1 40.0465 14.7308 -5.32156 0.0347686 1 
10998 1 40.0521 17.4153 -6.37518 0.00978179 1 
10999 1 42.2645 15.7009 -6.93023 0.012624 1 
11000 1 42.2775 18.4089 -7.92392 0.00648341 1 
11001 1 42.6006 17.8822 -5.17088 0.0748403 1 
11002 1 42.5983 20.6193 -6.13523 0.0465391 1 
11003 1 44.8207 18.902 -6.63722 0.0218972 1 
11004 1 44.8254 21.5891 -7.57776 0.0177409 1 
11005 1 45.1364 21.1093 -4.74074 6.77041 5 
11006 1 45.1306 23.79 -5.74334 0.0390791 1 
11007 1 47.3373 22.0436 -6.29021 0.0139621 1 
11008 1 47.339 24.7313 -7.28384 0.00425766 1 
11009 1 47.6337 24.2051 -4.46529 0.0514452 1 
11010 1 47.6628 26.9166 -5.44927 0.0295488 1 
11011 1 49.8598 25.1792 -6.05105 0.0303664 1 
11012 1 49.8821 27.8816 -7.01116 0.00758621 1 
11013 1 50.2265 27.3879 -4.24991 0.209222 1 
11014 1 50.2235 30.0901 -5.19033 0.0348002 1 
11015 1 32.174 0.44685 -7.09026 0.0166746 1 
11016 1 53.3891 45.6987 -4.29091 0.4378 5 
11017 1 32.4809 2.6277 -5.17989 0.428803 5 
11018 1 34.7012 0.908701 -5.76855 0.0311897 1 
11019 1 34.698 3.56833 -6.73747 0.0202335 1 
11020 1 34.9987 3.05486 -3.86701 1.09956 5 
11021 1 35.0109 5.73274 -4.97013 0.0296655 1 
11022 1 37.2283 4.01167 -5.48332 0.0238651 1 
11023 1 37.2325 6.71521 -6.48469 0.00519442 1 
11024 1 37.578 6.16544 -3.69525 0.0836027 1 
11025 1 37.5466 8.90295 -4.68901 0.0574132 1 
11026 1 39.7751 7.19924 -5.21605 0.0176022 1 
11027 1 39.7589 9.88481 -6.17132 0.0178153 1 
11028 1 40.1093 9.41447 -3.3388 0.484615 1 
11029 1 40.0666 12.0842 -4.32779 0.100706 1 
11030 1 42.2786 10.3435 -4.91028 0.0247662 1 
11031 1 42.2614 13.0178 -5.93294 0.00895537 1 
11032 1 42.5576 12.5148 -3.11609 0.0893782 1 
11033 1 42.5585 15.1708 -4.1214 0.100386 1 
11034 1 44.7843 13.4723 -4.72844 0.0209523 1 
11035 1 44.8003 16.2046 -5.69323 0.0346888 1 
11036 1 45.1072 15.6817 -3.002 0.286352 1 
11037 1 45.1833 18.4527 -3.81302 6.20073 5 
11038 1 47.3568 16.6931 -4.47785 0.322995 1 
11039 1 47.351 19.3823 -5.30209 0.0815256 1 
11040 1 47.8257 18.9426 -2.36604 5.67648 5 
11041 1 47.6035 21.5262 -3.40461 5.13543 5 
11042 1 49.8776 19.8211 -4.00127 0.254815 1 
11043 1 49.8396 22.471 -5.06625 0.0684996 1 
11044 1 50.2599 22.0166 -2.29539 5.4575 5 
11045 1 50.1681 24.6076 -3.27998 7.08573 5 
11046 1 35.0292 0.420556 -2.84718 3.27721 5 
11047 1 37.2042 1.32699 -4.47101 0.0465803 1 
11048 1 37.4704 0.769954 -1.57165 10.4076 5 
11049 1 37.5957 3.46654 -2.71257 4.44007 5 
11050 1 39.7309 1.74275 -3.28156 7.15535 5 
11051 1 39.7967 4.50591 -4.27096 0.204237 1 
11052 1 40.3268 3.83594 -1.69055 8.76277 5 
11053 1 40.1864 6.71463 -2.44767 0.866734 5 
11054 1 42.4044 5.01178 -2.84178 6.33865 5 
11055 1 42.3257 7.6866 -3.93185 0.0988526 1 
11056 1 42.8135 7.33055 -1.049 7.97895 5 
11057 1 42.5172 9.86362 -2.00561 3.04856 5 
11058 1 44.8569 8.11251 -2.66814 0.178179 1 
11059 1 44.7769 10.7836 -3.70045 0.0633953 1 
11060 1 45.166 10.2491 -0.947975 5.3928 5 
11061 1 45.1195 12.9328 -1.95369 0.181566 1 
11062 1 47.3589 11.3103 -2.59398 0.289189 1 
11063 1 47.3111 13.9284 -3.55995 6.70849 5 
11064 1 47.6848 16.0365 -1.8794 7.98098 5 
11065 1 50.4176 14.811 -1.36053 11.4531 5 
11066 1 49.9035 17.1541 -3.04809 2.59024 5 
11067 1 50.4284 19.5676 -0.936942 9.89967 5 
11068 1 40.3417 1.38539 -0.417166 12.2266 5 
11069 1 42.9515 2.55587 -1.00133 12.3064 5 
11070 1 44.8472 5.41413 -1.58311 5.89673 5 
11071 1 47.4133 5.88314 -0.515689 7.51482 5 
11072 1 47.3894 8.56256 -1.41799 5.86567 5 
11073 1 49.9871 11.9257 -1.31929 6.31435 5 
27153 3 53.4381 15.6402 -0.0198952 10.5381 5 
27152 3 52.0582 13.1643 0.3626 5.38769 5 
11337 1 28.053 35.6679 -14.8943 2.1967e-05 1 
11341 1 30.5842 38.8209 -14.6134 4.24579e-05 1 
11345 1 33.1127 41.9711 -14.3302 4.36888e-05 1 
11348 1 35.6386 45.1198 -14.0512 3.95381e-05 1 
11360 1 10.3396 8.23819 -14.896 2.16258e-05 1 
11364 1 12.8679 11.3857 -14.6148 2.80497e-05 1 
11368 1 15.3978 14.5341 -14.337 4.80783e-05 1 
11372 1 17.9311 17.6872 -14.0559 6.36404e-05 1 
11376 1 20.4638 20.8391 -13.7686 9.94278e-05 1 
11377 1 20.4639 23.5289 -14.7504 4.39956e-05 1 
11380 1 22.9925 23.9875 -13.4846 2.74312e-05 1 
11381 1 22.9933 26.678 -14.4675 1.81832e-05 1 
11384 1 25.5214 27.1362 -13.2032 0.000152411 1 
11385 1 25.5221 29.8265 -14.1881 3.9175e-05 1 
11386 1 27.7345 28.0994 -14.7497 3.42585e-05 1 
11388 1 28.0509 30.2851 -12.9298 7.13184e-05 1 
11389 1 28.0524 32.9763 -13.9127 3.64798e-05 1 
11390 1 30.2666 31.2507 -14.4739 4.04917e-05 1 
11392 1 30.5841 33.4381 -12.6553 0.00010539 1 
11393 1 30.5847 36.13 -13.634 6.90043e-05 1 
11394 1 32.7997 34.4047 -14.1927 4.82159e-05 1 
11396 1 33.1174 36.5941 -12.3693 0.000295403 1 
11397 1 33.115 39.282 -13.3474 0.000200942 1 
11398 1 35.3289 37.5549 -13.9084 6.56219e-05 1 
11399 1 35.3258 40.2434 -14.8906 2.82761e-05 1 
11400 1 35.6425 39.7411 -12.084 0.000179589 1 
11401 1 35.6403 42.4302 -13.0683 5.55278e-05 1 
11402 1 37.8536 40.7021 -13.6319 4.32586e-05 1 
11403 1 37.8518 43.392 -14.6151 1.84451e-05 1 
11404 1 38.167 42.8899 -11.8116 4.23074e-05 1 
11405 1 40.3795 43.8507 -13.3595 4.68681e-05 1 
11407 1 7.81266 2.39754 -14.1981 6.10603e-05 1 
11408 1 10.0258 0.668846 -14.7536 4.28815e-05 1 
11410 1 10.3423 2.85496 -12.9314 7.52585e-05 1 
11411 1 10.3407 5.54645 -13.9142 3.75898e-05 1 
11412 1 12.5533 3.81812 -14.4727 2.08116e-05 1 
11414 1 12.869 6.00427 -12.6504 3.52067e-05 1 
11415 1 12.8683 8.69536 -13.6332 3.83394e-05 1 
11416 1 15.0806 6.96703 -14.1944 4.69288e-05 1 
11418 1 15.3961 9.1527 -12.3732 8.02348e-05 1 
11419 1 15.3966 11.8432 -13.3552 6.2854e-05 1 
11420 1 17.6101 10.1177 -13.9186 3.79184e-05 1 
11421 1 17.612 12.8093 -14.8979 2.55491e-05 1 
11422 1 17.926 12.3036 -12.0986 0.000132583 1 
11423 1 17.929 14.9958 -13.077 8.16671e-05 1 
11424 1 20.1431 13.2722 -13.6377 7.74352e-05 1 
11425 1 20.145 15.9627 -14.6141 5.6842e-05 1 
11426 1 20.462 15.4612 -11.8139 0.000468102 1 
11427 1 20.4631 18.1504 -12.7897 0.000139508 1 
11428 1 22.676 16.4245 -13.3467 0.00023629 1 
11429 1 22.6759 19.1128 -14.3271 4.10288e-05 1 
11430 1 22.9931 18.6107 -11.5196 0.000236279 1 
11431 1 22.9924 21.2978 -12.5005 0.00013017 1 
11432 1 25.2042 19.5719 -13.0618 3.96967e-05 1 
11433 1 25.2041 22.2607 -14.0442 3.28817e-05 1 
11434 1 25.5185 21.7566 -11.2359 0.00016091 1 
11435 1 25.5197 24.4469 -12.2211 0.000127081 1 
11436 1 27.7312 22.7193 -12.7835 3.6113e-05 1 
11437 1 27.7327 25.4092 -13.7672 3.25354e-05 1 
11438 1 28.0465 24.9062 -10.9629 0.000241867 1 
11439 1 28.0486 27.5948 -11.9453 0.00016994 1 
11440 1 30.2611 25.8676 -12.5115 8.87719e-05 1 
11441 1 30.2641 28.559 -13.4933 7.39613e-05 1 
11442 1 30.5774 28.0538 -10.6946 0.000322343 1 
11443 1 30.5819 30.7458 -11.6761 0.00019298 1 
11444 1 32.7964 29.021 -12.2386 0.000149867 1 
11445 1 32.7996 31.7138 -13.2153 8.99039e-05 1 
11446 1 33.1171 31.2111 -10.422 0.000320331 1 
11447 1 33.1184 33.9041 -11.3944 0.000233777 1 
11448 1 35.3351 32.1791 -11.9536 0.000502199 1 
11449 1 35.3323 34.8675 -12.9293 0.000141147 1 
11450 1 35.6532 34.3713 -10.1292 0.00120421 1 
11451 1 35.648 37.0553 -11.1013 0.000536689 1 
11452 1 37.8642 35.3267 -11.6637 0.000235549 1 
11453 1 37.8576 38.0132 -12.647 9.22124e-05 1 
11454 1 38.1746 37.5106 -9.83926 0.000962769 1 
11455 1 38.168 40.1996 -10.8289 0.000483515 1 
11456 1 40.3861 38.4711 -11.3896 0.000189294 1 
11457 1 40.3816 41.1613 -12.3769 0.000150504 1 
11458 1 40.6963 40.6627 -9.58073 0.00279604 1 
11459 1 40.6949 43.3496 -10.5554 0.000488766 1 
11460 1 42.9108 41.6204 -11.1252 0.000358556 1 
11461 1 42.9076 44.3093 -12.1086 0.000133599 1 
11462 1 43.2215 43.8084 -9.30747 0.000726355 1 
11463 1 45.4368 44.7669 -10.8622 0.000373619 1 
11464 1 10.3435 0.164326 -11.9473 0.000208171 1 
11465 1 12.5539 1.12725 -13.4899 3.28075e-05 1 
11466 1 12.8691 0.621886 -10.6833 0.000245695 1 
11467 1 12.8702 3.31342 -11.6669 4.95949e-05 1 