ITEM: TIMESTEP
0
ITEM: NUMBER OF ATOMS
31580
ITEM: BOX BOUNDS xy xz yz pp pp ss
0.0000000000000000e+00 9.0883498350600007e+02 3.9696240658900001e+02
0.0000000000000000e+00 3.4598377925999998e+01 0.0000000000000000e+00
-1.0082517056079625e+02 1.0672173752375221e+02 0.0000000000000000e+00
ITEM: ATOMS id type x y z c_csym c_cna 
1 1 508.945 33.7934 -1.3162 8.37048 5 
2 1 511.443 32.527 -1.38465 2.7702 5 
3 1 498.925 33.3856 -1.8485 6.80064 5 
4 1 497.994 31.3574 0.0989954 9.20333 5 
5 1 500.555 30.1808 0.103262 5.31169 5 
6 1 502.401 33.9612 -3.97816 0.116682 1 
7 1 501.542 32.0488 -1.76962 1.5413 5 
8 1 503.938 33.593 -1.54117 6.85126 5 
9 1 504.04 30.8267 -2.11003 1.50595 5 
10 1 503.219 28.9642 -0.211704 10.0047 5 
11 1 505.686 27.8004 -0.154557 5.96393 5 
12 1 505.834 34.5309 -6.09421 0.0175633 1 
13 1 504.918 32.6794 -4.14281 0.078182 1 
14 1 507.389 34.1776 -3.77446 0.174801 1 
15 1 506.462 32.291 -1.91929 5.6332 5 
16 1 507.474 31.3227 -4.27939 0.0792286 1 
17 1 506.585 29.5044 -2.2243 0.126559 1 
18 1 508.981 31.0064 -1.91278 3.49293 5 
19 1 508.208 29.224 0.0949379 10.7464 5 
20 1 509.049 28.0971 -2.31925 0.288639 1 
21 1 508.098 26.3048 0.00296366 6.5035 5 
22 1 510.634 27.7572 0.0839988 11.5199 5 
23 1 510.456 24.8028 -0.3668 5.38649 5 
24 1 508.379 33.1735 -6.21571 0.0174369 1 
25 1 113.843 0.0497596 -5.75094 0.0266272 1 
26 1 509.91 32.8343 -3.81674 0.0670647 1 
27 1 510.897 31.8075 -6.28166 0.00486884 1 
28 1 509.994 29.9623 -4.28872 0.0511875 1 
29 1 511.465 29.6329 -1.82184 6.7912 5 
30 1 511.511 26.7328 -2.46251 0.477422 5 
31 1 511.803 33.6455 -8.26011 0.00208855 1 
32 1 85.4127 1.02985 -0.165302 11.1494 5 
33 1 485.897 32.8526 -0.224571 12.0755 5 
34 1 90.2984 0.837441 -0.147853 9.67618 5 
35 1 489.13 33.3014 -2.47208 2.35298 5 
36 1 488.409 31.4053 -0.513035 8.21599 5 
37 1 490.759 33.123 0.00960372 10.3783 5 
38 1 490.808 30.0333 -0.382645 8.27429 5 
39 1 492.543 33.7578 -4.6354 0.0191264 1 
40 1 491.623 31.8903 -2.58164 0.253967 1 
41 1 494.043 33.352 -2.25669 2.36662 5 
42 1 493.165 31.5544 -0.345218 9.15124 5 
43 1 494.169 30.5118 -2.78951 0.180792 1 
44 1 493.226 28.5835 -0.964213 6.38686 5 
45 1 495.629 29.9131 -0.256513 7.60101 5 
46 1 495.808 27.1743 -0.789136 7.34525 5 
47 1 495.97 34.2715 -6.68717 0.00658959 1 
48 1 495.065 32.4021 -4.71332 0.0185935 1 
49 1 497.49 33.8328 -4.30565 0.0812116 1 
50 1 496.576 31.8839 -2.32395 0.0750216 1 
51 1 497.584 31.0157 -4.78926 0.0165259 1 
52 1 496.686 29.1005 -2.76675 0.0872103 1 
53 1 499.117 30.5939 -2.40071 0.189377 1 
54 1 498.246 28.6287 -0.369173 7.71111 5 
55 1 499.184 27.7804 -2.86287 7.22841 5 
56 1 498.179 25.582 0.362672 10.251 5 
57 1 500.72 27.4004 -0.420484 6.46339 5 
58 1 500.686 24.6936 -0.821964 5.23106 5 
59 1 498.488 32.9026 -6.75838 0.0128341 1 
60 1 500.877 34.3824 -6.33248 0.0210444 1 
61 1 500.018 32.5025 -4.29844 0.13943 1 
62 1 500.983 31.5608 -6.85717 0.0079094 1 
63 1 500.09 29.6732 -4.8664 0.0156579 1 
64 1 502.495 31.1702 -4.46371 0.0637927 1 
65 1 501.626 29.2942 -2.47932 0.172604 1 
66 1 502.598 28.343 -4.9713 0.0202761 1 
67 1 501.703 26.4588 -2.85463 6.87308 5 
68 1 504.143 27.9436 -2.58631 6.35138 5 
69 1 503.176 26.103 0.631702 11.0552 5 
70 1 504.172 25.1999 -3.13404 7.10256 5 
71 1 503.25 23.4822 -1.12403 7.12774 5 
72 1 505.521 24.9953 -0.656686 5.99511 5 
73 1 505.717 21.9628 -0.965027 8.19681 5 
74 1 501.889 33.4253 -8.85908 0.00235517 1 
75 1 503.402 33.0361 -6.48616 0.0095174 1 
76 1 504.409 32.0737 -8.98156 0.00130507 1 
77 1 503.499 30.2153 -6.97395 0.00339157 1 
78 1 505.929 31.693 -6.60869 0.00958331 1 
79 1 505.02 29.8379 -4.5793 0.0304465 1 
80 1 506.019 28.8767 -7.09549 0.00243855 1 
81 1 505.121 27.0295 -5.09726 0.0267355 1 
82 1 507.538 28.4877 -4.70067 0.0247186 1 
83 1 506.635 26.6379 -2.60913 0.359218 1 
84 1 507.603 25.6782 -5.2113 0.0245189 1 
85 1 506.629 23.8274 -3.24155 0.256637 1 
86 1 509.095 25.3311 -2.83502 0.395353 1 
87 1 508.07 23.5962 -0.997567 6.04636 5 
88 1 509.209 22.4935 -3.38934 0.194584 1 
89 1 508.243 20.5989 -1.5186 5.85537 5 
90 1 510.588 22.0555 -0.848968 7.75169 5 
91 1 510.849 19.2469 -1.46063 3.93989 5 
92 1 505.323 33.9262 -10.9687 0.000312358 1 
93 1 506.845 33.5444 -8.5841 0.00190978 1 
94 1 507.844 32.57 -11.0791 0.000266119 1 
95 1 506.933 30.7223 -9.09329 0.000910869 1 
96 1 509.372 32.185 -8.68697 0.00191341 1 
97 1 508.465 30.3355 -6.70506 0.00966932 1 
98 1 509.453 29.3654 -9.19686 0.00056138 1 
99 1 508.534 27.5214 -7.20866 0.00102483 1 
100 1 510.978 28.9844 -6.79446 0.0023059 1 
101 1 510.049 27.1448 -4.82851 0.0219482 1 
102 1 511.047 26.1622 -7.31809 0.00522911 1 
103 1 510.144 24.3223 -5.2876 0.0812025 1 
104 1 511.676 23.9132 -2.75019 5.85296 5 
105 1 511.718 21.1245 -3.42491 0.0597411 1 
106 1 508.756 34.4158 -13.0649 7.07879e-05 1 
107 1 510.281 34.0279 -10.668 0.000434059 1 
108 1 511.272 33.0548 -13.1726 7.1288e-05 1 
109 1 510.363 31.2101 -11.1835 0.00025325 1 
110 1 511.889 30.8235 -8.77852 0.000898427 1 
111 1 473.371 34.3361 -0.735343 9.80916 5 
112 1 475.805 32.7528 -0.555237 7.9442 5 
113 1 476.673 34.583 -2.85948 0.350856 1 
114 1 478.249 34.1993 -0.676999 10.1814 5 
115 1 479.268 33.1976 -3.06186 0.164153 1 
116 1 478.252 31.3084 -1.23061 6.37144 5 
117 1 480.965 32.7513 -0.589448 10.4058 5 
118 1 480.77 29.9994 -1.0795 5.10349 5 
119 1 481.702 34.5871 -2.67243 5.40015 5 
120 1 482.656 33.6288 -5.17555 0.00512121 1 
121 1 481.755 31.7948 -3.14098 0.102963 1 
122 1 484.218 33.2045 -2.80067 7.38954 5 
123 1 483.418 31.3727 -0.887316 10.2386 5 
124 1 484.287 30.4022 -3.31442 0.178712 1 
125 1 483.332 28.6918 -1.29756 5.52777 5 
126 1 485.9 29.9644 -0.686261 6.63383 5 
127 1 485.753 27.183 -1.15362 6.34625 5 
128 1 486.072 34.1019 -7.30035 0.00318899 1 
129 1 485.182 32.2576 -5.27777 0.0255058 1 
130 1 487.617 33.6645 -4.92142 0.0524225 1 
131 1 486.733 31.7894 -2.81484 0.33266 1 
132 1 487.676 30.8703 -5.39354 0.0230636 1 
133 1 486.7 29.0305 -3.43569 0.507003 1 
134 1 489.239 30.4702 -3.0438 0.25425 1 
135 1 488.258 28.5283 -1.34045 7.90761 5 
136 1 489.294 27.6215 -3.62605 0.389858 1 
137 1 488.371 25.7708 -1.5141 6.67216 5 
138 1 490.728 27.2432 -1.12933 6.33269 5 
139 1 490.884 24.3438 -1.23122 8.30658 5 
140 1 489.495 34.5881 -9.39618 0.000768827 1 
141 1 488.588 32.7248 -7.40268 0.00287159 1 
142 1 491.023 34.1795 -7.01146 0.00271027 1 
143 1 490.117 32.3276 -4.99801 0.0199148 1 
144 1 491.1 31.3664 -7.50954 0.00168096 1 
145 1 490.187 29.5118 -5.54566 0.0264116 1 
146 1 492.622 30.9502 -5.12201 0.0106659 1 
147 1 491.67 29.1009 -3.13703 0.260377 1 
148 1 492.696 28.1299 -5.62302 0.0174361 1 
149 1 491.78 26.2627 -3.59711 0.222777 1 
150 1 494.257 27.7069 -3.31378 0.2249 1 
151 1 493.318 25.9063 -1.337 5.83474 5 
152 1 494.329 24.9013 -3.74938 0.165805 1 
153 1 493.398 23.0456 -1.75212 5.41643 5 
154 1 495.806 24.4819 -1.12013 7.89173 5 
155 1 495.992 21.731 -1.70216 4.24209 5 
156 1 495.105 20.1646 0.437233 9.53774 5 
157 1 497.253 18.2009 0.366823 10.3884 5 
158 1 492.012 33.2234 -9.49655 0.000380698 1 
159 1 493.54 32.8112 -7.10713 0.00135834 1 
160 1 494.529 31.8592 -9.5935 0.000378789 1 
161 1 493.618 29.9956 -7.60915 0.000919678 1 
162 1 496.057 31.4512 -7.19668 0.0020839 1 
163 1 495.161 29.5788 -5.23087 0.0244846 1 
164 1 496.14 28.6349 -7.70583 0.00251787 1 
165 1 495.249 26.7635 -5.71654 0.0251858 1 
166 1 497.666 28.2118 -5.28779 0.00721033 1 
167 1 496.773 26.3187 -3.24502 1.47661 5 
168 1 497.745 25.4186 -5.79258 0.0123263 1 
169 1 496.849 23.5712 -3.72167 0.090945 1 
170 1 499.252 25.031 -3.3484 1.59471 5 
171 1 498.395 23.1934 -1.29654 6.51752 5 
172 1 499.36 22.2487 -3.90232 0.242076 1 
173 1 498.46 20.3132 -2.16454 6.9735 5 
174 1 500.825 21.7382 -1.1523 9.29059 5 
175 1 500.91 19.007 -2.10022 3.353 5 
176 1 499.973 17.1475 -0.160389 9.5107 5 
177 1 502.535 15.8567 -0.101298 5.08589 5 
178 1 495.437 33.7203 -11.5755 0.000247854 1 
179 1 496.962 33.3161 -9.17347 0.00107221 1 
180 1 497.95 32.3606 -11.6748 0.000166169 1 
181 1 497.044 30.4999 -9.68903 0.000471334 1 
182 1 499.47 31.959 -9.26982 0.000834699 1 
183 1 498.569 30.09 -7.28099 0.00201465 1 
184 1 499.555 29.1451 -9.78631 0.000477026 1 
185 1 498.653 27.2817 -7.78774 0.00273961 1 
186 1 501.077 28.7466 -7.37859 0.00201786 1 
187 1 500.189 26.8784 -5.35839 0.0254849 1 
188 1 501.155 25.941 -7.89663 0.0023594 1 
189 1 500.247 24.0939 -5.88246 0.012212 1 
190 1 502.656 25.5451 -5.47965 0.0324288 1 
191 1 501.74 23.6752 -3.41412 0.229808 1 
192 1 502.745 22.7568 -6.0181 0.0156769 1 
193 1 501.8 20.9173 -4.05 0.287781 1 
194 1 504.262 22.3694 -3.63769 0.17958 1 
195 1 503.32 20.4573 -1.8353 6.6329 5 
196 1 504.35 19.5333 -4.21571 0.0873477 1 
197 1 503.445 17.6696 -2.12502 0.287961 1 
198 1 505.819 19.1789 -1.78377 6.41439 5 
199 1 505.985 16.4176 -2.36124 0.374715 1 
200 1 505.173 14.6131 -0.548342 8.99964 5 
201 1 507.466 16.0795 0.240452 4.75775 5 
202 1 507.451 13.112 -0.48307 6.75708 5 
203 1 498.858 34.2175 -13.6619 5.9631e-05 1 
204 1 500.377 33.8192 -11.2611 0.000232221 1 
205 1 501.371 32.8587 -13.7682 5.55617e-05 1 
206 1 500.462 31.0038 -11.7777 0.000155408 1 
207 1 502.89 32.4645 -11.3703 0.000289182 1 
208 1 501.981 30.6087 -9.37471 0.000690014 1 
209 1 502.975 29.6498 -11.8862 0.000125461 1 
210 1 502.066 27.7961 -9.89324 0.000279112 1 
211 1 504.496 29.2586 -9.4883 0.000595466 1 
212 1 503.587 27.4029 -7.48947 0.00244287 1 
213 1 504.578 26.4465 -10.0081 0.000299318 1 
214 1 503.662 24.5992 -8.01588 0.00173145 1 
215 1 506.099 26.0612 -7.61437 0.00195199 1 
216 1 505.169 24.2228 -5.62756 0.00755326 1 
217 1 506.175 23.2495 -8.13828 0.000960975 1 
218 1 505.252 21.4048 -6.16522 0.00852055 1 
219 1 507.689 22.8727 -5.75152 0.0117978 1 
220 1 506.737 21.0483 -3.76082 0.167648 1 
221 1 507.763 20.0529 -6.26116 0.00833979 1 
222 1 506.876 18.2196 -4.26326 0.0653609 1 
223 1 509.295 19.6508 -3.88525 0.0843384 1 
224 1 508.409 17.8378 -1.74743 0.903854 1 
225 1 509.344 16.8387 -4.37469 0.0493241 1 
226 1 508.389 15.005 -2.44032 0.316375 1 
227 1 510.851 16.4222 -1.98142 0.690907 5 
228 1 509.875 14.3735 -0.272226 7.92526 5 
229 1 510.957 13.5407 -2.62065 0.29023 1 
230 1 509.982 11.6451 -0.452807 0.809635 1 
231 1 503.803 34.3165 -13.361 7.91958e-05 1 
233 1 503.886 31.5013 -13.8776 4.18849e-05 1 
234 1 506.32 32.9589 -13.4721 5.2021e-05 1 
235 1 505.408 31.1095 -11.4832 0.000170732 1 
236 1 506.402 30.1436 -13.9885 2.65465e-05 1 
237 1 505.49 28.2953 -11.9984 7.23306e-05 1 
238 1 507.927 29.7532 -11.5932 0.00011855 1 
239 1 507.013 27.9072 -9.60317 0.000170565 1 
240 1 508.006 26.9384 -12.1099 3.88155e-05 1 
241 1 507.093 25.0924 -10.1205 0.000336083 1 
242 1 509.529 26.5499 -9.71264 0.000236818 1 
243 1 508.618 24.7074 -7.71525 0.00521323 1 
244 1 509.605 23.7357 -10.2325 0.000199415 1 
245 1 508.688 21.8914 -8.24993 0.000583707 1 
246 1 511.124 23.3505 -7.83175 0.00220371 1 
247 1 510.209 21.5052 -5.85583 0.00676524 1 
248 1 511.197 20.5331 -8.36848 0.000545793 1 
249 1 510.269 18.6842 -6.39708 0.00752929 1 
250 1 511.762 18.3013 -4.05132 0.169211 1 
251 1 511.852 15.4696 -4.52223 0.0573572 1 
255 1 508.838 31.5998 -13.5814 5.18538e-05 1 
257 1 508.918 28.7846 -14.0986 2.96687e-05 1 
258 1 511.353 30.2392 -13.6897 5.66211e-05 1 
259 1 510.443 28.3943 -11.7003 0.00010475 1 
260 1 511.433 27.4246 -14.2088 4.51763e-05 1 
261 1 510.52 25.5798 -12.2205 5.09441e-05 1 
264 1 463.291 33.9244 -1.49796 5.33017 5 
265 1 465.898 32.676 -1.50858 1.04442 5 
266 1 466.763 34.4557 -3.50825 0.112266 1 
267 1 468.313 33.9859 -1.19905 7.91752 5 
268 1 469.313 33.0257 -3.60906 1.65431 5 
269 1 468.369 31.2445 -1.58973 6.2981 5 
270 1 470.474 32.5712 0.00182411 9.68028 5 
271 1 470.83 29.9059 -1.59236 7.18017 5 
272 1 472.396 26.377 -0.31845 12.5518 5 
273 1 471.775 34.4014 -3.12923 5.91466 5 
274 1 472.742 33.52 -5.70462 0.0336401 1 
275 1 471.75 31.6742 -3.7723 6.74076 5 
276 1 474.277 33.1711 -3.2412 0.406403 1 
277 1 473.023 31.6364 -1.36644 8.57792 5 
278 1 474.286 30.3708 -3.81933 0.169305 1 
279 1 473.251 28.6369 -1.82616 2.29544 5 
280 1 475.744 30.0231 -1.43788 0.904775 5 
281 1 475.883 27.1765 -2.08484 2.11362 5 
282 1 474.908 25.3467 -0.193202 6.94496 5 
283 1 477.448 24.1242 0.327446 11.8446 5 
284 1 476.154 33.9888 -7.81836 0.00298215 1 
285 1 475.23 32.17 -5.82077 0.0105691 1 
286 1 477.685 33.6075 -5.41773 0.020402 1 
287 1 476.72 31.813 -3.42805 0.264822 1 
288 1 477.748 30.8 -5.93685 0.0111176 1 
289 1 476.837 28.9942 -3.96183 0.0461795 1 
290 1 479.302 30.3768 -3.58387 0.101717 1 
291 1 478.297 28.575 -1.54882 5.29024 5 
292 1 479.358 27.5679 -4.04721 0.0279607 1 
293 1 478.391 25.7396 -2.04087 4.13291 5 
294 1 480.838 27.2301 -1.57542 6.36232 5 
295 1 480.909 24.3353 -2.23148 3.9503 5 
296 1 479.785 22.5206 -0.26782 9.74049 5 
297 1 481.248 25.2976 0.28382 6.70887 5 
298 1 482.453 21.1021 -0.0688275 11.0687 5 
299 1 479.581 34.448 -9.9469 0.000443047 1 
300 1 478.669 32.6142 -7.93885 0.00207884 1 
301 1 481.114 34.0428 -7.56342 0.00126895 1 
302 1 480.209 32.2122 -5.55505 0.0059978 1 
303 1 481.187 31.2318 -8.0564 0.000420657 1 
304 1 480.276 29.3975 -6.05543 0.00347708 1 
305 1 482.72 30.8262 -5.65943 0.00690431 1 
306 1 481.796 29.0023 -3.63662 0.0404551 1 
307 1 482.789 28.0144 -6.14826 0.00558244 1 
308 1 481.873 26.2022 -4.13369 0.040633 1 
309 1 484.311 27.5858 -3.74123 0.0998739 1 
310 1 483.35 25.7645 -1.71337 6.40158 2 
311 1 484.413 24.7866 -4.16849 0.190869 1 
312 1 483.488 22.9049 -2.1717 5.88911 5 
313 1 485.917 24.322 -1.4462 8.68079 5 
314 1 483.698 23.9847 0.411147 10.6179 5 
315 1 486.024 21.6255 -2.40598 6.46781 5 
316 1 484.965 19.9226 -0.599619 7.45162 5 
317 1 487.395 21.1492 0.256756 11.6393 5 
318 1 487.771 18.3028 -0.571822 5.84483 5 
319 1 482.099 33.0723 -10.061 0.000298212 1 
320 1 484.538 34.5132 -9.67855 0.000528053 1 
321 1 483.632 32.6624 -7.67135 0.0016278 1 
322 1 484.614 31.6982 -10.1735 0.000192584 1 
323 1 483.698 29.8523 -8.17076 0.00176572 1 
324 1 486.144 31.2886 -7.78647 0.00133374 1 
325 1 485.223 29.439 -5.80111 0.0241147 1 
326 1 486.212 28.4737 -8.28587 0.00305414 1 
327 1 485.304 26.6249 -6.24522 0.0180521 1 
328 1 487.727 28.0524 -5.90552 0.0510241 1 
329 1 486.809 26.2212 -3.75865 0.306592 1 
330 1 487.823 25.269 -6.35444 0.0284291 1 
331 1 486.898 23.4654 -4.3467 0.250924 1 
332 1 489.381 24.8328 -3.98184 0.261749 1 
333 1 488.446 22.9502 -2.08647 6.27441 5 
334 1 489.449 22.0387 -4.50662 0.0665313 1 
335 1 488.55 20.202 -2.40716 0.369707 1 
336 1 490.956 21.6241 -2.04135 6.17663 5 
337 1 490.061 19.7549 0.0368446 7.63422 5 
338 1 491.069 18.8687 -2.62331 0.228201 1 
339 1 490.243 16.9391 -0.856857 8.60868 5 
340 1 492.566 18.5256 0.058002 6.4548 5 
341 1 492.654 15.6255 -0.87553 7.33137 5 
342 1 485.527 33.5499 -12.1717 0.000153838 1 
343 1 487.055 33.1406 -9.78804 0.000412273 1 
344 1 488.044 32.1807 -12.2815 0.000134315 1 
345 1 487.129 30.3266 -10.2864 0.000197616 1 
346 1 489.572 31.7718 -9.89569 0.000296437 1 
347 1 488.653 29.9144 -7.90323 0.00220765 1 
348 1 489.647 28.9593 -10.3985 0.000311473 1 
349 1 488.732 27.105 -8.40101 0.00434383 1 
350 1 491.179 28.5509 -8.01838 0.00258501 1 
351 1 490.272 26.6872 -6.03661 0.0327088 1 
352 1 491.257 25.7387 -8.51031 0.0022851 1 
353 1 490.346 23.8894 -6.49909 0.0153378 1 
354 1 492.788 25.3271 -6.11055 0.0117261 1 
355 1 491.855 23.4996 -4.03779 0.195178 1 
356 1 492.857 22.5368 -6.57648 0.0175348 1 
357 1 491.972 20.7008 -4.55147 0.0714962 1 
358 1 494.404 22.1115 -4.16883 0.0872211 1 
359 1 493.525 20.2804 -1.99747 1.03919 1 
360 1 494.457 19.354 -4.70734 0.0760526 1 
361 1 493.502 17.5333 -2.81549 0.40751 1 
362 1 496.011 18.9651 -2.31167 0.752192 5 
363 1 494.986 17.0879 -0.633074 7.28086 5 
364 1 496.077 16.1157 -2.99194 0.189538 1 
365 1 495.054 14.2248 -1.0628 5.31509 5 
366 1 497.672 15.6067 -0.621069 8.57898 5 
367 1 497.588 12.8439 -0.842762 6.62139 5 
368 1 488.957 34.0364 -14.2708 0.000101059 1 
369 1 490.484 33.6304 -11.8841 0.000208042 1 
370 1 491.474 32.6707 -14.3775 9.28014e-05 1 
371 1 490.561 30.8146 -12.3895 0.000113388 1 
372 1 493.001 32.2661 -11.987 0.000179534 1 
373 1 492.09 30.4083 -10.0011 0.000236035 1 
374 1 493.079 29.451 -12.4946 0.000135779 1 
375 1 492.168 27.5945 -10.5042 0.000426022 1 
376 1 494.607 29.0447 -10.1006 0.000265589 1 
377 1 493.7 27.1843 -8.10788 0.00135399 1 
378 1 494.684 26.2336 -10.6058 0.000367015 1 
379 1 493.774 24.3771 -8.60454 0.00251733 1 
380 1 496.215 25.8261 -8.207 0.00206802 1 
381 1 495.315 23.9613 -6.19828 0.0193145 1 
382 1 496.288 23.0262 -8.7173 0.00179655 1 
383 1 495.368 21.1819 -6.72693 0.00740959 1 
384 1 497.82 22.6356 -6.30222 0.0151907 1 
385 1 496.883 20.8038 -4.35582 0.137893 1 
386 1 497.878 19.8297 -6.86813 0.0110336 1 
387 1 496.969 17.9928 -4.87275 0.0396297 1 
388 1 499.427 19.41 -4.54333 0.167505 1 
389 1 498.472 17.5534 -2.46972 0.457012 5 
390 1 499.477 16.5992 -4.98202 0.0176906 1 
391 1 498.591 14.699 -3.0155 0.189224 1 
392 1 501.034 16.2151 -2.64634 0.165398 1 
393 1 500.221 14.4393 -0.652046 3.31371 5 
394 1 501.092 13.3387 -3.03342 0.218123 1 
395 1 500.126 11.4866 -0.706988 7.11725 5 
396 1 502.638 13.0986 -0.58071 3.87221 5 
397 1 502.619 10.247 -0.968835 4.56628 5 
399 1 493.911 34.1238 -13.971 9.74706e-05 1 
401 1 493.99 31.3072 -14.4825 8.58228e-05 1 
402 1 496.426 32.7614 -14.0737 7.69142e-05 1 
403 1 495.517 30.904 -12.0877 0.000160255 1 
404 1 496.505 29.946 -14.5872 7.37294e-05 1 
405 1 495.595 28.0902 -12.5979 0.000163707 1 
406 1 498.031 29.5455 -12.1894 0.000161444 1 
407 1 497.123 27.6867 -10.1989 0.000645021 1 
408 1 498.109 26.7334 -12.7042 0.000134652 1 
409 1 497.198 24.8787 -10.7127 0.000372705 1 
410 1 499.634 26.3356 -10.3033 0.000402257 1 
411 1 498.726 24.4798 -8.30782 0.00176411 1 
412 1 499.71 23.5271 -10.8257 0.000333538 1 
413 1 498.794 21.6783 -8.84056 0.00220449 1 
414 1 501.231 23.1386 -8.42538 0.00226506 1 
415 1 500.318 21.2931 -6.46178 0.0217347 1 
416 1 501.307 20.3215 -8.95943 0.00125686 1 
417 1 500.4 18.4578 -6.98421 0.0100553 1 
418 1 502.818 19.9381 -6.56157 0.00822444 1 
419 1 501.929 18.0752 -4.57635 0.0263191 1 
420 1 502.902 17.106 -7.07996 0.00165772 1 
421 1 501.986 15.2305 -5.09012 0.0222807 1 
422 1 504.419 16.726 -4.69358 0.0206087 1 
423 1 503.501 14.8696 -2.72334 0.238161 1 
424 1 504.485 13.8844 -5.20184 0.0428445 1 
425 1 503.607 12.0058 -3.03744 0.44913 1 
426 1 506.004 13.486 -2.876 0.510377 1 
427 1 505.066 11.6804 -0.395491 8.20533 5 
428 1 506.075 10.7197 -3.30258 0.312962 1 
429 1 505.148 8.90318 -1.48513 5.99114 5 
430 1 507.485 10.2723 -0.827894 6.07716 5 
431 1 507.591 7.43865 -1.54724 6.42137 5 
436 1 498.94 31.4016 -14.1779 5.68243e-05 1 
438 1 499.02 28.5874 -14.6938 5.27018e-05 1 
439 1 501.454 30.0439 -14.285 4.21158e-05 1 
440 1 500.543 28.1905 -12.2949 0.000113 1 
441 1 501.533 27.2302 -14.8031 2.95733e-05 1 
442 1 500.622 25.3787 -12.8143 7.52532e-05 1 
443 1 503.056 26.8367 -12.4056 6.75768e-05 1 
444 1 502.144 24.9861 -10.4159 0.000244295 1 
445 1 503.134 24.0233 -12.9266 3.9657e-05 1 
446 1 502.22 22.1737 -10.9401 0.000190634 1 
447 1 504.655 23.6334 -10.5306 0.000146819 1 
448 1 503.737 21.786 -8.54499 0.000960859 1 
449 1 504.731 20.817 -11.0533 6.10567e-05 1 
450 1 503.816 18.9651 -9.06627 0.000397426 1 
451 1 506.251 20.4295 -8.6622 0.00066899 1 
452 1 505.341 18.5752 -6.67989 0.00601947 1 
453 1 506.326 17.6077 -9.18259 0.000218139 1 
454 1 505.407 15.7516 -7.19537 0.00136737 1 
455 1 507.842 17.2243 -6.78843 0.00347127 1 
456 1 506.922 15.3701 -4.82643 0.0263201 1 
457 1 507.916 14.3971 -7.31744 0.00154609 1 
458 1 507.006 12.538 -5.33048 0.0173717 1 
459 1 509.418 14.0002 -4.92782 0.0245218 1 
460 1 508.514 12.1328 -2.88816 0.104032 1 
461 1 509.494 11.1719 -5.42281 0.00763023 1 
462 1 508.556 9.32244 -3.40456 0.0708975 1 
463 1 510.975 10.7396 -3.01855 0.0412794 1 
464 1 510.019 8.83586 -1.00527 2.00869 5 
465 1 511.069 7.91368 -3.49288 0.0772435 1 
466 1 510.129 6.0824 -1.36611 0.96708 1 
474 1 503.968 28.6869 -14.395 2.6027e-05 1 
476 1 504.047 25.8728 -14.9142 1.69117e-05 1 
477 1 506.483 27.329 -14.5064 1.56996e-05 1 
478 1 505.57 25.4811 -12.5177 4.08747e-05 1 
480 1 505.647 22.6662 -13.0395 2.19906e-05 1 
481 1 508.083 24.1237 -12.6304 3.89147e-05 1 
482 1 507.168 22.2773 -10.645 7.49223e-05 1 
483 1 508.159 21.308 -13.1536 2.80304e-05 1 
484 1 507.243 19.4594 -11.1685 7.44778e-05 1 
485 1 509.679 20.9194 -10.76 9.00877e-05 1 
486 1 508.758 19.0729 -8.77604 0.000672453 1 
487 1 509.753 18.1006 -11.2858 0.000153659 1 
488 1 508.835 16.2501 -9.29897 0.000218934 1 
489 1 511.267 17.7103 -8.90231 0.00142419 1 
490 1 510.344 15.8582 -6.90464 0.00419889 1 
491 1 511.344 14.8881 -9.41862 0.000434806 1 
492 1 510.421 13.0315 -7.43145 0.00181878 1 
504 1 508.997 25.9701 -14.618 1.93013e-05 1 
507 1 511.51 24.6103 -14.7308 2.29295e-05 1 
508 1 510.596 22.7652 -12.744 4.6981e-05 1 
510 1 510.671 19.9488 -13.2698 5.44207e-05 1 
520 1 450.011 33.3634 0.239806 4.72392 5 
521 1 452.434 31.6339 -0.257752 8.08918 5 
522 1 453.407 33.6791 -1.97089 0.708539 5 
523 1 455.899 32.2308 -2.1193 0.296988 1 
524 1 454.983 30.2238 -0.133152 5.33193 5 
525 1 457.679 29.056 -0.390005 7.86874 5 
526 1 456.869 34.1359 -4.23066 0.238515 1 
527 1 458.322 33.7094 -1.80476 6.54064 5 
528 1 459.394 32.8282 -4.25811 0.0434973 1 
529 1 458.485 30.9465 -2.3324 0.155899 1 
530 1 460.899 32.4237 -1.82321 0.436323 1 
531 1 459.95 30.6011 0.110318 4.78367 5 
532 1 461.024 29.6409 -2.43777 0.132181 1 
533 1 460.198 27.8418 -0.406664 5.87906 5 
534 1 462.722 29.3646 -0.189984 9.75971 5 
535 1 462.762 26.6387 0.591655 11.674 5 
536 1 63.324 0.0991375 -6.23975 0.0094585 1 
537 1 461.831 34.2949 -3.91123 0.146796 1 
538 1 462.823 33.3424 -6.35559 0.0081714 1 
539 1 461.901 31.4942 -4.38625 0.0227508 1 
540 1 464.363 32.988 -3.95423 0.0412969 1 
541 1 463.444 31.1798 -2.0605 0.374826 1 
542 1 464.429 30.1451 -4.48344 0.0214206 1 
543 1 463.518 28.2605 -2.52276 1.73472 5 
544 1 465.967 29.853 -2.1231 6.39999 5 
545 1 465.302 28.1039 -0.189167 12.0743 5 
546 1 466.011 26.9564 -2.59424 6.30995 5 
547 1 464.942 25.2102 -0.589346 10.187 5 
548 1 467.858 27.4956 1.02561 9.07236 5 
549 1 467.432 23.7025 -0.733663 8.76516 5 
550 1 466.251 33.8317 -8.41736 0.00172201 1 
551 1 465.341 31.9943 -6.4484 0.0022951 1 
552 1 467.78 33.4465 -6.00778 0.0160963 1 
553 1 466.862 31.6309 -4.05135 0.0438279 1 
554 1 467.854 30.6284 -6.5374 0.0163104 1 
555 1 466.955 28.791 -4.54573 0.295529 1 
556 1 469.341 30.1933 -4.0386 0.341359 1 
557 1 468.35 28.306 -1.65697 10.9222 5 
558 1 469.392 27.4452 -4.66249 0.349519 1 
559 1 468.445 25.5916 -2.6976 6.50056 5 
560 1 470.815 27.1048 -2.33703 6.17471 5 
561 1 469.536 25.4454 -0.168361 10.8785 5 
562 1 471.068 24.2811 -2.5449 5.95047 5 
563 1 470.013 22.488 -0.714614 4.74066 5 
564 1 472.481 23.6173 0.433279 10.8829 5 
565 1 472.727 21.0206 -0.944616 8.47586 5 
566 1 469.678 34.3009 -10.5188 0.000255887 1 
567 1 468.763 32.4644 -8.52955 0.00161191 1 
568 1 471.207 33.9002 -8.12011 0.0036442 1 
569 1 470.269 32.0543 -6.13115 0.0303586 1 
570 1 471.278 31.0958 -8.64058 0.00145793 1 
571 1 470.35 29.2677 -6.65054 0.018927 1 
572 1 472.793 30.7179 -6.23643 0.00852596 1 
573 1 471.848 28.883 -4.26587 0.0941523 1 
574 1 472.862 27.903 -6.77026 0.0049942 1 
575 1 471.91 26.0698 -4.81059 0.174301 1 
576 1 474.369 27.5643 -4.39632 0.0821288 1 
577 1 473.487 25.6887 -2.59687 2.51259 5 
578 1 474.489 24.6835 -4.93757 0.100361 1 
579 1 473.523 22.875 -2.89443 0.959038 5 
580 1 476.007 24.3134 -2.48514 0.349828 1 
581 1 474.994 22.5757 -0.574759 4.96854 5 
582 1 476.036 21.4576 -3.01991 0.0742722 1 
583 1 475.159 19.5437 -0.946493 9.00662 5 
584 1 477.579 20.9767 -0.733635 7.0828 5 
585 1 477.645 18.1506 -1.14443 7.30495 5 
586 1 472.194 32.9329 -10.6294 0.000236794 1 
587 1 474.63 34.3787 -10.223 0.000449554 1 
588 1 473.717 32.5443 -8.22801 0.00117726 1 
589 1 474.708 31.5653 -10.7368 0.000195818 1 
590 1 473.791 29.7319 -8.74602 0.000816575 1 
591 1 476.229 31.1779 -8.33591 0.000983582 1 
592 1 475.307 29.3608 -6.3447 0.00583197 1 
593 1 476.307 28.3627 -8.85309 0.00092877 1 
594 1 475.387 26.537 -6.87806 0.00650595 1 
595 1 477.831 27.9761 -6.4563 0.00321679 1 
596 1 476.913 26.1457 -4.49368 0.0235106 1 
597 1 477.907 25.1499 -6.97297 0.00143219 1 
598 1 476.98 23.3086 -4.99404 0.0123411 1 
599 1 479.421 24.7672 -4.57018 0.0164181 1 
600 1 478.435 22.9508 -2.57733 0.376679 1 
601 1 479.504 21.9525 -5.06996 0.0318765 1 
602 1 478.583 20.0914 -3.1828 0.135996 1 
603 1 481.028 21.5408 -2.65197 0.266922 1 
604 1 480.061 19.6081 -0.83464 4.88443 5 
605 1 481.106 18.7086 -3.28559 0.140194 1 
606 1 480.036 16.7984 -1.28935 5.96998 5 
607 1 482.647 18.3392 -0.957218 8.84072 5 
608 1 482.53 15.4498 -0.477858 12.9094 5 
609 1 475.62 33.4049 -12.7311 0.000110002 1 
610 1 477.143 33.0091 -10.3342 0.000524367 1 
611 1 478.135 32.0344 -12.842 0.000125145 1 
612 1 477.222 30.1949 -10.8451 0.000270722 1 
613 1 479.659 31.6349 -10.448 0.000330619 1 
614 1 478.745 29.8015 -8.44681 0.00115847 1 
615 1 479.737 28.8206 -10.9537 0.000259991 1 
616 1 478.824 26.9842 -8.95751 0.000627539 1 
617 1 481.262 28.4184 -8.55579 0.000660441 1 
618 1 480.352 26.5861 -6.55443 0.00251631 1 
619 1 481.343 25.6059 -9.0541 0.0023549 1 
620 1 480.429 23.7734 -7.05947 0.00389398 1 
621 1 482.875 25.2044 -6.6272 0.020314 1 
622 1 481.965 23.3745 -4.64325 0.0464189 1 
623 1 482.939 22.4029 -7.17598 0.00283143 1 
624 1 482.012 20.5722 -5.20953 0.0180079 1 
625 1 484.471 22.0161 -4.78641 0.0474679 1 
626 1 483.522 20.1906 -2.8649 0.303262 1 
627 1 484.53 19.1768 -5.30513 0.0267246 1 
628 1 483.612 17.2865 -3.30746 0.903456 5 
629 1 486.114 18.8116 -2.98246 0.244584 1 
630 1 485.182 17.0857 -1.00224 6.3061 5 
631 1 486.135 15.9696 -3.40523 0.174253 1 
632 1 485.039 14.3159 -1.46469 5.23188 5 
633 1 487.669 15.5075 -0.840337 7.00855 5 
634 1 487.712 12.7032 -1.60839 6.58349 5 
635 1 479.047 33.8792 -14.8386 5.32168e-05 1 
636 1 480.571 33.4772 -12.449 0.000126155 1 
637 1 481.563 32.509 -14.9509 4.72912e-05 1 
638 1 480.65 30.6625 -12.9535 9.47156e-05 1 
639 1 483.087 32.1052 -12.5617 8.75129e-05 1 
640 1 482.174 30.2591 -10.5612 0.00017092 1 
641 1 483.165 29.2908 -13.0647 0.000100572 1 
642 1 482.252 27.4457 -11.0612 0.000384403 1 
643 1 484.688 28.8847 -10.6725 0.000437716 1 
644 1 483.777 27.0394 -8.65679 0.00232623 1 
645 1 484.767 26.075 -11.1716 0.000399246 1 
646 1 483.853 24.2362 -9.1664 0.00143529 1 
647 1 486.294 25.6696 -8.77124 0.00206214 1 
648 1 485.38 23.839 -6.76435 0.0108317 1 
649 1 486.369 22.8652 -9.28107 0.00050128 1 
650 1 485.457 21.0257 -7.28521 0.00239058 1 
651 1 487.893 22.4711 -6.874 0.00918178 1 
652 1 487.001 20.6393 -4.88902 0.0268138 1 
653 1 487.973 19.6597 -7.40711 0.00202856 1 
654 1 487.053 17.8092 -5.44118 0.0185124 1 
655 1 489.503 19.256 -4.99656 0.0328976 1 
656 1 488.59 17.378 -3.07756 0.230553 1 
657 1 489.561 16.4405 -5.58834 0.0278718 1 
658 1 488.58 14.5966 -3.59719 0.256265 1 
659 1 491.113 16.0199 -3.29156 0.190352 1 
660 1 490.12 14.1054 -1.44159 7.75722 5 
661 1 491.213 13.1906 -3.72912 0.744061 5 
662 1 490.272 11.3522 -1.80529 6.73408 5 
663 1 492.505 12.6873 -0.66718 13.803 5 
664 1 492.856 9.95095 -1.61966 7.03633 5 
665 1 490.787 9.5285 0.161082 9.4404 5 
666 1 494.303 7.37332 0.322001 9.97998 5 
668 1 484.001 33.9556 -14.5572 7.0998e-05 1 
671 1 486.518 32.5868 -14.668 6.87354e-05 1 
672 1 485.603 30.7345 -12.6733 9.38351e-05 1 
674 1 485.681 27.9214 -13.1764 0.000115046 1 
675 1 488.12 29.3664 -12.7848 9.66627e-05 1 
676 1 487.205 27.5149 -10.7861 0.000434823 1 
677 1 488.198 26.5543 -13.2883 0.000116219 1 
678 1 487.283 24.7068 -11.2851 0.000312142 1 
679 1 489.724 26.1479 -10.8974 0.000520492 1 
680 1 488.808 24.3024 -8.8851 0.00225006 1 
681 1 489.8 23.3416 -11.3984 0.000404434 1 
682 1 488.886 21.4995 -9.39488 0.00152192 1 
683 1 491.33 22.9358 -9.00132 0.00233836 1 
684 1 490.425 21.0909 -6.99348 0.0102642 1 
685 1 491.401 20.136 -9.52262 0.000987243 1 
686 1 490.482 18.2954 -7.54158 0.00456185 1 
687 1 492.93 19.7439 -7.12457 0.00785086 1 
688 1 492.012 17.9082 -5.18071 0.0369393 1 
689 1 493.004 16.931 -7.67523 0.0040875 1 
690 1 492.092 15.0727 -5.72918 0.031944 1 
691 1 494.516 16.5221 -5.28623 0.0247751 1 
692 1 493.585 14.6345 -3.32213 0.599151 5 
693 1 494.615 13.6966 -5.80576 0.0181723 1 
694 1 493.653 11.8479 -3.73802 0.540745 5 
695 1 496.15 13.295 -3.42871 0.161375 1 
696 1 495.165 11.5383 -1.51594 6.42562 5 
697 1 496.251 10.4903 -3.91904 0.18571 1 
698 1 495.393 8.61845 -1.93768 7.26597 5 
699 1 497.758 10.0351 -1.35112 5.68473 5 
700 1 497.914 7.2095 -1.72564 7.53052 5 
701 1 496.358 5.29843 -0.298858 10.9656 5 
702 1 499.431 3.9461 0.0231398 12.8555 5 
707 1 489.035 31.2199 -14.7777 6.58445e-05 1 
710 1 491.552 29.8551 -14.8859 7.02472e-05 1 
711 1 490.638 28.0009 -12.8942 0.000126814 1 
713 1 490.715 25.1899 -13.3996 0.000145903 1 
714 1 493.156 26.6384 -13.0017 0.00015954 1 
715 1 492.243 24.7851 -11.0057 0.000526589 1 
716 1 493.231 23.8289 -13.512 0.000100526 1 
717 1 492.316 21.9803 -11.5166 0.000232667 1 
718 1 494.758 23.4273 -11.1161 0.000324868 1 
719 1 493.841 21.5817 -9.11741 0.00144831 1 
720 1 494.831 20.6212 -11.6347 0.00015649 1 
721 1 493.916 18.7759 -9.64588 0.000762779 1 
722 1 496.354 20.2224 -9.24471 0.000829529 1 
723 1 495.438 18.3777 -7.24878 0.00587002 1 
724 1 496.432 17.4117 -9.76334 0.000421034 1 
725 1 495.521 15.5602 -7.78366 0.0021892 1 
726 1 497.957 17.0119 -7.37648 0.00260696 1 
727 1 497.055 15.1498 -5.41359 0.0221291 1 
728 1 498.043 14.1897 -7.8844 0.00347141 1 
729 1 497.155 12.3331 -5.86872 0.0456199 1 
730 1 499.568 13.7649 -5.46544 0.0266184 1 
731 1 498.669 11.8947 -3.32608 0.354436 1 
732 1 499.638 10.9726 -5.94682 0.0259341 1 
733 1 498.732 9.10755 -3.93932 0.159016 1 
734 1 501.155 10.5985 -3.52139 0.190446 1 
735 1 500.351 8.69682 -1.67841 7.53354 5 
736 1 501.253 7.75718 -4.14842 0.129468 1 
737 1 500.333 5.79468 -2.33094 6.30814 5 
738 1 502.817 7.32183 -1.54904 8.04171 5 
739 1 502.802 4.4899 -2.22909 2.57327 5 