ITEM: TIMESTEP
0
ITEM: NUMBER OF ATOMS
3083
ITEM: BOX BOUNDS xy xz yz pp pp ss
-2.4893195693999999e+01 3.7558154907000002e+01 -2.4893195693999999e+01
0.0000000000000000e+00 4.5949374947999999e+01 0.0000000000000000e+00
-1.0462580588355480e+02 1.1159421855803892e+02 0.0000000000000000e+00
ITEM: ATOMS id type x y z c_csym c_cna 
41 1 -22.9728 45.88 -3.11932 0.228705 1 
43 1 -22.7698 44.1054 -1.07676 7.22151 5 
44 1 -21.1729 43.6151 -3.19006 0.262271 1 
46 1 -20.8654 41.8112 -0.733758 7.25679 5 
57 1 -19.4036 41.3907 -3.23078 0.609912 1 
59 1 -19.0121 39.6373 -1.20495 11.6688 5 
62 1 -17.4755 37.2298 -1.18152 8.73975 5 
64 1 -18.1382 35.1506 -2.9225 0.157093 1 
83 1 -16.4002 32.8268 -3.00905 0.188529 1 
86 1 -14.6736 30.5586 -3.12123 0.22847 1 
88 1 -14.4709 28.7861 -1.07606 7.20911 5 
112 1 -12.8735 28.2943 -3.1893 0.259816 1 
114 1 -12.5656 26.4921 -0.731616 7.25755 5 
115 1 -11.1032 26.0692 -3.22859 0.607595 1 
117 1 -10.7143 24.3138 -1.20345 11.6657 5 
150 1 -9.16876 21.9059 -1.17531 8.72671 5 
152 1 -9.835 19.8279 -2.91896 0.159227 1 
154 1 -8.0885 17.4967 -2.99707 0.186725 1 
191 1 -6.36767 15.2198 -3.10775 0.192632 1 
193 1 -6.16955 13.449 -1.05222 7.53348 5 
194 1 -4.54096 12.9514 -3.15183 0.310665 1 
196 1 -4.39087 11.1265 -0.799525 3.49805 5 
219 1 -2.8408 10.7413 -3.26194 0.154826 1 
221 1 -2.58944 8.93663 -1.21812 7.46171 5 
224 1 -0.834418 6.67108 -1.14993 8.01935 5 
226 1 -1.53152 4.5353 -2.90935 0.158126 1 
229 1 0.197039 2.2039 -3.00476 0.196616 1 
307 1 -23.8137 45.4053 -6.94856 0.0134356 1 
308 1 -21.4184 45.3775 -5.43065 0.0202748 1 
310 1 -22.0621 43.1462 -7.05391 0.0122684 1 
350 1 -20.307 40.9037 -7.18327 0.00559707 1 
352 1 -20.0877 39.1653 -4.93673 0.0472693 1 
353 1 -18.5523 38.648 -7.31037 0.00267246 1 
355 1 -18.3322 36.903 -5.07442 0.0256215 1 
398 1 -16.811 36.3737 -7.43858 0.00216118 1 
400 1 -16.5967 34.6146 -5.21563 0.0272403 1 
403 1 -14.8594 32.3403 -5.32052 0.0148428 1 
405 1 -15.5147 30.0854 -6.94985 0.0135144 1 
451 1 -13.1189 30.0573 -5.43105 0.0201872 1 
453 1 -13.7621 27.8263 -7.05344 0.0122818 1 
456 1 -12.0061 25.5833 -7.18119 0.00561803 1 
458 1 -11.786 23.8444 -4.93425 0.0473438 1 
503 1 -10.2499 23.3265 -7.30643 0.0027686 1 
505 1 -10.0284 21.58 -5.07082 0.0250993 1 
506 1 -8.50657 21.0498 -7.43144 0.00195004 1 
508 1 -8.28942 19.2873 -5.20624 0.0253145 1 
555 1 -6.54872 17.0091 -5.30559 0.0148057 1 
557 1 -7.21118 14.7692 -6.9478 0.00906045 1 
558 1 -4.80374 14.7227 -5.4071 0.0245476 1 
560 1 -5.46818 12.5132 -7.06256 0.00533902 1 
598 1 -3.7178 10.2641 -7.19418 0.00281659 1 
600 1 -3.49387 8.52502 -4.94519 0.0277245 1 
601 1 -1.95921 8.00552 -7.32201 0.00152351 1 
603 1 -1.73384 6.26042 -5.08717 0.0136071 1 
610 1 -0.213376 5.73758 -7.44251 0.00193049 1 
611 1 -0.000936603 3.98243 -5.21324 0.0265616 1 
675 1 0.334663 0.485873 -0.635175 3.39326 5 
723 1 -22.2798 44.9086 -9.32509 0.00140548 1 
771 1 -20.53 42.6507 -9.44101 0.000835466 1 
773 1 -21.1831 40.4268 -11.1221 0.000180375 1 
774 1 -18.7773 40.3917 -9.5603 0.000339445 1 
776 1 -19.4339 38.1623 -11.242 0.000155912 1 
825 1 -17.6874 35.8931 -11.359 0.000133724 1 
827 1 -17.4697 34.1346 -9.11188 0.000287765 1 
828 1 -15.9431 33.6215 -11.4716 0.000157657 1 
830 1 -15.7279 31.8579 -9.21727 0.00125319 1 
875 1 -14.1977 31.3519 -11.583 0.000188277 1 
877 1 -13.9806 29.5899 -9.3246 0.00145635 1 
880 1 -12.23 27.3313 -9.43933 0.000839253 1 
882 1 -12.883 25.1082 -11.12 0.000177333 1 
927 1 -10.4763 25.0715 -9.55699 0.000353221 1 
929 1 -11.133 22.8434 -11.2386 0.000151676 1 
932 1 -9.38598 20.5742 -11.3544 0.000120543 1 
934 1 -9.16668 18.815 -9.10621 0.000182667 1 
981 1 -7.64196 18.3035 -11.4669 0.00011272 1 
983 1 -7.42541 16.5402 -9.21236 0.000744086 1 
984 1 -5.89848 16.0357 -11.5804 6.62996e-05 1 
986 1 -5.68257 14.2746 -9.32507 0.000490654 1 
1028 1 -3.93547 12.0153 -9.44512 0.000429067 1 
1030 1 -4.58864 9.79208 -11.1272 0.000180412 1 
1031 1 -2.18315 9.75504 -9.56676 0.000255741 1 
1033 1 -2.83881 7.52671 -11.2468 0.000136879 1 
1045 1 -1.09181 5.25795 -11.3624 0.000105601 1 
1046 1 -0.873974 3.49984 -9.11347 0.000291726 1 
1100 1 1.7357 1.71197 -5.3175 0.0162278 1 
1149 1 -23.1503 44.4422 -13.2577 2.84837e-05 1 
1198 1 -21.4029 42.1786 -13.3736 3.31042e-05 1 
1201 1 -19.6546 39.9142 -13.4909 3.22665e-05 1 
1248 1 -17.9071 37.6477 -13.6077 3.19028e-05 1 
1251 1 -16.1609 35.3794 -13.7228 2.81677e-05 1 
1302 1 -14.8516 29.1249 -13.2562 2.6706e-05 1 
1305 1 -13.1036 26.8608 -13.3717 3.0826e-05 1 
1354 1 -11.3548 24.5961 -13.4882 3.07898e-05 1 
1357 1 -9.60694 22.3296 -13.6042 3.05847e-05 1 
1405 1 -7.86084 20.0618 -13.7189 2.65392e-05 1 
1412 1 -6.55424 13.81 -13.2577 2.3145e-05 1 
1457 1 -4.80734 11.5457 -13.3755 3.38089e-05 1 
1460 1 -3.05909 9.28071 -13.4938 3.50098e-05 1 
1477 1 -1.31141 7.01399 -13.6106 3.08257e-05 1 
1526 1 0.652334 2.98772 -11.4735 0.000144338 1 
1527 1 0.866944 1.22579 -9.21715 0.00122813 1 
1573 1 2.39707 0.719734 -11.5842 0.000177315 1 
1952 1 0.434766 4.7459 -13.7252 2.7816e-05 1 
21421 2 -23.8714 44.4324 1.29176 12.0018 5 
21423 2 -21.3666 41.4896 2.10451 5.83038 5 
21425 2 -20.3241 39.2663 1.04463 7.82804 5 
21427 2 -18.6527 38.5214 3.25017 0.412636 1 
21429 2 -17.5389 36.3065 1.6933 7.66754 5 
21806 2 -16.1542 33.7451 0.975948 10.2247 5 
21807 2 -16.6586 31.3558 2.21811 7.20154 5 
21808 2 -15.5735 29.1139 1.29233 12.0016 5 
21812 2 -13.0706 26.172 2.10671 5.82214 5 
21816 2 -10.3582 23.207 3.25442 0.400914 1 
22071 2 -8.3612 16.0452 2.21593 7.22219 5 
22085 2 -12.028 23.9496 1.04636 7.8186 5 
22087 2 -9.24566 20.9915 1.70582 7.48872 5 
22088 2 -7.86096 18.4377 0.982797 10.5635 5 
22244 2 -7.21665 13.8149 1.30831 12.385 5 
22246 2 -4.78913 10.928 2.08472 7.62037 5 
22248 2 -3.6155 8.75103 1.19484 13.5625 5 
22250 2 -2.038 7.88662 3.29432 6.62726 5 
22252 2 -0.935615 5.7028 1.66842 7.99243 5 
22323 2 0.438988 3.11397 0.976775 10.0423 5 
22324 2 -0.0617658 0.725972 2.21853 7.19018 5 
61 1 -19.8998 37.4191 -2.69911 0.720995 5 
85 1 -16.2597 31.1154 -0.63608 3.37921 5 
118 1 -11.5966 22.098 -2.69801 0.718593 5 
156 1 -7.94798 15.7916 -0.626039 3.41926 5 
223 1 -3.30147 6.76437 -2.73272 0.333505 1 
309 1 -23.5943 43.6237 -4.6398 0.143746 1 
312 1 -21.827 41.3783 -4.75941 0.0769461 1 
402 1 -17.2594 32.3709 -6.86103 0.00347602 1 
407 1 -15.2947 28.3028 -4.64069 0.14263 1 
455 1 -13.5267 26.0579 -4.75826 0.077151 1 
510 1 -8.95511 17.0509 -6.85497 0.00287621 1 
559 1 -6.99459 12.9892 -4.64899 0.113589 1 
562 1 -5.25362 10.7519 -4.7906 0.0348654 1 
612 1 -0.664701 1.73976 -6.85825 0.00390958 1 
725 1 -22.9327 42.6873 -11.0024 0.000137094 1 
778 1 -19.2117 36.4093 -8.9984 0.000875669 1 
879 1 -14.6333 27.3691 -11.0013 0.000135166 1 
931 1 -10.9093 21.0896 -8.9942 0.000878158 1 
988 1 -6.33771 12.0541 -11.0059 0.000139034 1 
1035 1 -2.61673 5.77148 -9.00347 0.00076124 1 
1255 1 -16.5981 31.3909 -13.1429 4.5986e-05 1 
1409 1 -8.29928 16.0755 -13.1423 3.50928e-05 1 
1483 1 -0.00302369 0.757903 -13.1446 4.58685e-05 1 
21433 2 -14.8183 33.294 3.24577 2.85956 5 
21456 2 -21.0124 44.0942 0.933815 10.3161 5 
21809 2 -13.8273 31.5487 1.05939 11.5089 5 
21811 2 -12.7156 28.7759 0.936169 10.3253 5 
22090 2 -6.53367 17.9902 3.25594 2.77062 5 
22092 2 -5.5194 16.2286 1.07747 10.917 5 
22254 2 -4.19115 13.4301 0.811083 10.1796 5 
22260 2 1.7772 2.67839 3.23933 2.79706 5 
22325 2 2.76445 0.91684 1.06368 11.5708 5 
22378 3 -18.0423 33.3481 -0.877187 8.93199 5 
22398 3 -9.7402 18.026 -0.873544 8.8939 5 
22408 3 -1.44302 2.7222 -0.877453 8.99294 5 
20971 2 -22.3324 43.7666 3.44745 1.79892 5 
21810 2 -14.036 28.4478 3.44971 1.81313 5 
22075 2 -5.69833 13.1655 3.42509 1.68451 5 
60 1 -17.6439 39.1151 -3.46845 0.881845 1 
81 1 -15.7125 35.0931 -1.29826 6.52843 5 
84 1 -14.0957 32.663 -1.48601 3.56998 5 
148 1 -9.34186 23.7917 -3.46456 0.873862 1 
153 1 -7.41009 19.7611 -1.30416 6.63637 5 
189 1 -5.771 17.3236 -1.46984 3.42945 5 
222 1 -1.05592 8.46704 -3.44619 0.116828 1 
348 1 -19.6452 43.1192 -5.51441 0.0355904 1 
401 1 -15.0713 34.1 -7.55738 0.00243087 1 
449 1 -13.3325 31.8238 -7.67142 0.00228832 1 
454 1 -11.3451 27.7986 -5.51278 0.0354044 1 
553 1 -6.76472 18.774 -7.54533 0.00202944 1 
556 1 -5.02555 16.4978 -7.6549 0.00158417 1 
596 1 -3.05517 12.4767 -5.51494 0.0141702 1 
672 1 0.880633 4.48539 -1.27983 6.20383 5 
674 1 2.49627 2.03614 -1.48314 3.60938 5 
769 1 -20.749 44.4047 -11.698 0.000131658 1 
772 1 -18.9996 42.1417 -11.8138 9.74812e-05 1 
823 1 -17.0299 38.1269 -9.68028 0.000369569 1 
878 1 -12.4498 29.0865 -11.6963 0.000135726 1 
925 1 -10.6998 26.8226 -11.8112 0.000101874 1 
930 1 -8.72775 22.8055 -9.67474 0.000331304 1 
1026 1 -4.15271 13.7713 -11.6973 5.5968e-05 1 
1029 1 -2.40405 11.508 -11.8157 5.70217e-05 1 
1044 1 -0.433974 7.4903 -9.68617 0.000253812 1 
1099 1 1.52451 3.46741 -7.55674 0.00241929 1 
1145 1 3.26207 1.19319 -7.67088 0.00234531 1 
1298 1 -14.4149 33.1109 -13.8365 2.77353e-05 1 
1408 1 -6.11578 17.7944 -13.8334 1.59943e-05 1 
1997 1 2.18032 2.47814 -13.8384 2.68558e-05 1 
21426 2 17.1743 36.579 2.13901 2.41944 5 
22065 2 25.4708 21.2623 2.14079 2.41489 5 
22249 2 33.779 5.95457 2.13373 2.63572 5 
1 1 -14.2562 41.1002 -0.371005 12.682 5 
2 1 -10.3015 44.7702 -1.44495 2.95258 5 
3 1 -8.53501 42.4329 -1.85601 7.59615 5 
4 1 -11.0814 40.7777 -0.88354 9.5104 5 
5 1 -10.5575 36.0943 -0.419254 12.1708 5 
6 1 -4.19117 45.8773 -3.12184 0.229998 1 
7 1 -6.40252 44.1708 -2.32989 0.736824 5 
8 1 -3.98768 44.1057 -1.07649 7.20451 5 
9 1 -4.58373 41.7774 -2.30555 0.912717 1 
10 1 -6.78658 40.1004 -1.64639 3.45963 5 
11 1 -5.01533 37.8962 -2.0805 7.3957 5 
12 1 -7.63366 35.9877 -0.968734 11.9815 5 
13 1 -5.51178 34.1036 -1.41525 7.83129 5 
14 1 -5.96 25.7797 -0.370255 12.6965 5 
15 1 -1.75189 45.9471 -1.34308 2.77803 5 
16 1 -0.27097 45.3978 -3.88286 0.226399 1 
17 1 -2.39173 43.6146 -3.19033 0.260977 1 
18 1 -0.104462 43.6859 -1.70843 6.87068 5 
19 1 -2.08495 41.8111 -0.733296 7.2616 5 
20 1 -0.622943 41.391 -3.23052 0.610638 1 
21 1 -2.80955 39.611 -2.4346 1.01532 5 
22 1 -0.230764 39.6382 -1.20452 11.6761 5 
23 1 -1.12027 37.4191 -2.69838 0.72447 5 
24 1 -3.31208 35.6356 -2.06855 6.59585 5 
25 1 -0.967416 35.7453 -0.569113 7.955 5 
26 1 -1.61404 33.4355 -2.2577 1.55693 5 
27 1 -3.80946 31.6977 -1.69004 8.3498 5 
28 1 -2.00493 29.4519 -1.44306 2.95552 5 
29 1 -2.78421 25.4594 -0.881139 9.5197 5 
30 1 -2.27481 20.7786 -0.415347 11.9939 5 
31 1 0.143439 31.0449 -2.1422 1.29815 1 
32 1 -0.238969 27.1123 -1.85384 7.60245 5 
33 1 4.52382 41.101 -0.370549 12.677 5 
34 1 8.47764 44.7723 -1.4435 2.9503 5 
35 1 7.6977 40.7786 -0.883102 9.51038 5 
36 1 8.2214 36.0947 -0.419156 12.1731 5 
37 1 12.3736 44.1744 -2.32866 0.73812 5 
38 1 10.2431 42.4341 -1.85612 7.60498 5 
39 1 11.9916 40.1012 -1.64625 3.46028 5 
40 1 11.1451 35.9884 -0.968877 11.9791 5 
42 1 -20.5349 45.9482 -1.34117 2.78614 5 
45 1 14.1937 41.7777 -2.30588 0.914671 1 
47 1 15.9682 39.6113 -2.43541 1.01005 5 
48 1 13.763 37.8967 -2.08066 7.39487 5 
49 1 15.4666 35.6362 -2.06894 6.59436 5 
50 1 13.2668 34.1043 -1.41575 7.82792 5 
51 1 14.9696 31.6994 -1.69079 8.34709 5 
52 1 12.8223 25.7841 -0.37066 12.6858 5 
53 1 -19.0527 45.3962 -3.88371 0.226824 1 
54 1 -16.6156 45.3433 -2.56586 7.94259 5 
55 1 -18.8855 43.6855 -1.70918 6.86816 5 
56 1 -17.2277 43.0378 -3.87767 0.790345 1 
58 1 -17.0342 41.5778 -1.13767 11.4134 5 
63 1 17.8115 35.7457 -0.56957 7.95198 5 
65 1 17.1653 33.4363 -2.25851 1.55711 5 
66 1 18.9231 31.046 -2.14352 1.29774 1 
67 1 16.7745 29.4537 -1.44468 2.95493 5 
68 1 18.541 27.1157 -1.85585 7.59756 5 
69 1 15.9947 25.4614 -0.883369 9.5164 5 
70 1 16.5188 20.7781 -0.419135 12.1681 5 
71 1 -15.0332 44.7897 -4.72237 0.267893 1 
72 1 -12.7012 44.7154 -2.98835 1.16968 1 
73 1 -14.8552 43.101 -2.29623 2.88547 5 
74 1 -13.3227 42.5695 -4.76583 0.139992 1 
75 1 -15.5321 40.8568 -4.01526 0.516245 1 
76 1 -13.0945 40.7851 -2.70588 7.29016 5 
77 1 -15.4619 39.1021 -1.80731 7.09324 5 
78 1 -13.7569 38.5134 -4.08698 0.372948 1 
79 1 -15.8968 36.8288 -3.4874 0.22977 1 
80 1 -13.5088 36.8418 -1.61495 6.32686 5 
82 1 -14.2098 34.5778 -3.62671 0.171067 1 
87 1 20.6733 28.8533 -2.32986 0.738453 5 
89 1 22.4934 26.458 -2.30495 0.917766 1 
90 1 20.29 24.7829 -1.64587 3.46022 5 
91 1 22.062 22.5781 -2.07992 7.39829 5 
92 1 19.443 20.6713 -0.968224 11.9865 5 
93 1 21.566 18.7882 -1.41508 7.82933 5 
94 1 21.1202 10.4687 -0.371968 12.6688 5 
95 1 15.9363 0.0176067 -6.17806 0.0109512 1 
96 1 -11.1508 44.2469 -5.45566 0.0324208 1 
97 1 -8.75727 44.2349 -3.91178 0.147507 1 
98 1 -10.9532 42.523 -3.16874 0.63661 5 
99 1 -9.38979 41.9693 -5.50392 0.086748 1 
100 1 -11.5397 40.24 -4.88439 0.205235 1 
101 1 -9.21408 40.1478 -3.18338 0.583606 1 
102 1 -11.3642 38.4426 -2.49071 3.26902 5 
103 1 -9.84535 38.0146 -4.97133 0.0957085 1 
104 1 -12.0628 36.2991 -4.24915 0.215474 1 
105 1 -9.60286 36.2234 -2.89425 6.27497 5 
106 1 -11.8734 34.4557 -2.11191 6.40074 5 
107 1 -10.2899 34.0337 -4.4791 0.051017 1 
108 1 -12.4757 32.2726 -3.7552 0.148338 1 
109 1 -10.0412 32.3931 -2.27085 7.40853 5 
110 1 -12.2357 30.6264 -1.34284 2.77214 5 
111 1 -10.7537 30.0769 -3.88328 0.227189 1 
113 1 -10.5855 28.365 -1.70886 6.86418 5 
116 1 24.2682 24.291 -2.43368 1.01045 5 
119 1 23.7673 20.3181 -2.06782 6.59691 5 
120 1 26.112 20.4276 -0.568023 7.98822 5 
121 1 25.4671 18.1181 -2.25642 1.56288 5 
122 1 23.2698 16.3831 -1.6886 8.34906 5 
123 1 25.0775 14.139 -1.44208 2.95119 5 
124 1 24.2917 10.1469 -0.884839 9.51889 5 
125 1 24.8307 5.46592 -0.418753 12.1896 5 
126 1 -6.58681 45.9188 -4.60846 0.0512401 1 
127 1 -5.03331 45.4036 -6.95058 0.013354 1 
128 1 -7.20926 43.6878 -6.25436 0.0179257 1 
129 1 -4.81331 43.6215 -4.64159 0.141892 1 
130 1 -6.95547 41.894 -4.01571 0.24999 1 
131 1 -5.45347 41.4366 -6.37064 0.016072 1 
132 1 -7.66098 39.7092 -5.64344 0.0343739 1 
133 1 -5.23106 39.7027 -4.11808 0.176175 1 
134 1 -7.46059 37.9505 -3.36547 0.447782 1 
135 1 -5.90703 37.4872 -5.80401 0.0289941 1 
136 1 -8.0797 35.7519 -5.17146 0.0605299 1 
137 1 -5.73263 35.722 -3.6039 0.338149 1 
138 1 -7.87867 33.9822 -2.88672 6.10011 5 
139 1 -6.34692 33.504 -5.30558 0.0360612 1 
140 1 -8.53133 31.8011 -4.63409 0.105531 1 
141 1 -6.16433 31.7825 -3.10848 1.47957 5 
142 1 -8.31759 30.0241 -2.56563 7.94222 5 
143 1 -6.7344 29.4701 -4.72059 0.269551 1 
144 1 -8.9281 27.717 -3.87627 0.789697 1 
145 1 -6.55705 27.7808 -2.29418 2.88777 5 
146 1 -8.7364 26.2552 -1.1362 11.3801 5 
147 1 -7.23245 25.5347 -4.01218 0.519213 1 
149 1 -7.15851 23.7778 -1.8072 7.10758 5 
151 1 -7.59173 21.5016 -3.48368 0.22777 1 
155 1 27.2276 15.7263 -2.13724 1.33539 1 
157 1 28.9734 13.5384 -2.33247 0.707485 5 
158 1 26.8409 11.7988 -1.85524 7.55528 5 
159 1 28.5827 9.46976 -1.64766 3.475 5 
160 1 27.7667 5.38819 -0.968854 12.0742 5 
161 1 -2.63704 45.377 -5.43144 0.0203162 1 
162 1 -1.09313 44.8727 -7.77482 0.00482092 1 
163 1 -3.28154 43.1454 -7.05454 0.0122165 1 
164 1 -0.864426 43.1197 -5.51409 0.0355625 1 
165 1 -3.04641 41.3776 -4.75926 0.0774839 1 
166 1 -1.52688 40.9035 -7.18303 0.0056349 1 
167 1 -3.70988 39.1959 -6.50605 0.012423 1 
168 1 -1.30781 39.165 -4.9364 0.0476602 1 
169 1 -3.46166 37.4438 -4.31269 0.143169 1 
170 1 -1.9539 36.9318 -6.65176 0.0106196 1 
171 1 -4.16263 35.2219 -5.96777 0.014621 1 
172 1 -1.75342 35.1904 -4.44027 0.0450311 1 
173 1 -3.95068 33.4816 -3.78612 0.0968101 1 
174 1 -2.39848 32.9298 -6.08043 0.0158599 1 
175 1 -4.58325 31.1944 -5.34786 0.0879683 1 
176 1 -2.18619 31.1374 -3.85241 0.231515 1 
177 1 -4.40395 29.3964 -2.98597 1.17207 1 
178 1 -2.85346 28.9269 -5.45271 0.0328839 1 
179 1 -5.0243 27.2483 -4.76258 0.14186 1 
180 1 -2.6566 27.2028 -3.16574 0.64154 5 
181 1 -4.79615 25.4619 -2.70389 7.28667 5 
182 1 -3.23998 24.9156 -4.87925 0.20787 1 
183 1 -5.45305 23.1864 -4.08283 0.366774 1 
184 1 -3.06545 23.1181 -2.48362 3.21143 5 
185 1 -5.20654 21.5145 -1.6122 6.23314 5 
186 1 -3.75871 20.9623 -4.23375 0.220857 1 
187 1 -5.89713 19.2403 -3.61361 0.166399 1 
188 1 -3.55757 19.1048 -2.09933 6.38377 5 
190 1 -4.15356 16.9179 -3.73114 0.113319 1 
192 1 -3.93691 15.2378 -1.36644 1.89206 5 
195 1 30.7374 11.1596 -2.34221 0.672681 1 
197 1 32.5106 8.98181 -2.51639 0.464443 1 
198 1 30.3591 7.26406 -2.08144 7.0127 5 
199 1 32.0697 5.03205 -2.04707 6.19158 5 
200 1 29.8764 3.4879 -1.41014 7.84823 5 
201 1 31.5678 1.07116 -1.68917 8.27852 5 
202 1 0.22725 38.648 -7.3098 0.00267272 1 
203 1 -0.214321 34.6464 -6.75316 0.00651957 1 
204 1 -0.0120873 32.8668 -4.47677 0.114076 1 
205 1 -0.660059 30.6479 -6.17564 0.0111116 1 
206 1 -0.460927 28.9153 -3.90913 0.148815 1 
207 1 -1.09227 26.6473 -5.49867 0.0882795 1 
208 1 -0.917323 24.8247 -3.17733 0.58837 1 
209 1 -1.54768 22.6864 -4.96152 0.0977069 1 
210 1 -1.30695 20.8956 -2.88459 6.3749 5 
211 1 0.214441 20.4156 -5.15301 0.0692717 1 
212 1 -1.98283 18.6735 -4.43504 0.0443841 1 
213 1 -1.71986 16.9971 -2.1802 6.64875 5 
214 1 -0.233822 16.4288 -4.56118 0.0442757 1 
215 1 -2.42553 14.6825 -3.78008 0.164416 1 
216 1 -0.0241794 14.6232 -2.42569 2.11107 5 
217 1 -2.20771 12.8409 -1.43712 1.02523 1 
218 1 -0.664378 12.4108 -3.92171 0.0944795 1 
220 1 -0.43325 10.6685 -1.62785 0.891342 5 
225 1 34.4498 5.15115 -0.566489 7.85917 5 
227 1 33.7577 2.8263 -2.23564 1.37676 5 
228 1 35.5172 0.419961 -2.14076 1.28268 1 
230 1 2.16535 45.3452 -2.56447 7.9548 5 
231 1 3.74766 44.794 -4.71957 0.267176 1 
232 1 1.55282 43.0396 -3.87697 0.787276 1 
233 1 3.92534 43.1027 -2.29538 2.88196 5 
234 1 1.74646 41.5791 -1.13715 11.4226 5 
235 1 3.24719 40.8579 -4.0141 0.517497 1 
236 1 1.13559 39.1149 -3.4685 0.887316 1 
237 1 3.3166 39.1028 -1.80617 7.09697 5 
238 1 1.30351 37.2297 -1.18104 8.74604 5 
239 1 2.88226 36.829 -3.4866 0.230836 1 
240 1 0.640825 35.1502 -2.92178 0.157368 1 
241 1 3.06646 35.0932 -1.29756 6.52646 5 
242 1 2.37829 32.8263 -3.00834 0.188897 1 
243 1 2.51903 31.1146 -0.635405 3.37815 5 
244 1 1.89286 28.8517 -2.32805 0.740288 5 
245 1 1.50935 24.7787 -1.64201 3.44657 5 
246 1 0.653175 20.66 -0.956826 12.2087 5 
247 1 6.07841 44.7199 -2.98624 1.16007 1 
248 1 7.62817 44.2509 -5.45267 0.0316791 1 
249 1 5.45652 42.572 -4.76419 0.14021 1 
250 1 7.82487 42.5254 -3.16739 0.635583 5 
251 1 5.68461 40.7858 -2.70554 7.29238 5 
252 1 7.23914 40.2415 -4.88369 0.206754 1 
253 1 5.02186 38.5141 -4.08611 0.374328 1 
254 1 7.41456 38.4433 -2.49028 3.27026 5 
255 1 5.26998 36.8423 -1.61402 6.33549 5 
256 1 6.71555 36.2998 -4.24862 0.215813 1 
257 1 4.56863 34.5779 -3.62615 0.171337 1 
258 1 6.90481 34.4563 -2.11144 6.40173 5 
259 1 4.68261 32.663 -1.48542 3.57171 5 
260 1 6.30215 32.273 -3.75469 0.148629 1 
261 1 4.10429 30.5581 -3.12013 0.228911 1 
262 1 6.54259 30.6267 -1.34205 2.777 5 
263 1 4.30725 28.785 -1.07547 7.21191 5 
264 1 5.90376 28.2946 -3.18887 0.263169 1 
265 1 3.71323 26.4556 -2.30205 0.921425 1 
266 1 6.21369 26.4909 -0.7303 7.28434 5 
267 1 5.48779 24.2884 -2.42519 1.07201 5 
268 1 3.27795 22.5719 -2.07715 7.46617 5 
269 1 4.9868 20.3228 -2.07109 6.41262 5 
270 1 2.79307 18.8064 -1.38844 8.1744 5 
271 1 4.50614 16.3902 -1.66119 7.75209 5 
272 1 2.16995 10.6193 -0.365222 13.2624 5 
273 1 34.715 0.0213834 -6.17379 0.0109155 1 
274 1 12.1907 45.9237 -4.60517 0.0522654 1 
275 1 10.0204 44.239 -3.90935 0.147765 1 
276 1 11.5688 43.6903 -6.2522 0.0182757 1 
277 1 9.38855 41.9718 -5.50213 0.0878556 1 
278 1 11.8226 41.8958 -4.01511 0.252454 1 
279 1 9.56425 40.1489 -3.18298 0.584442 1 
280 1 11.1171 39.7106 -5.643 0.0343574 1 
281 1 8.93303 38.0156 -4.97094 0.0957275 1 
282 1 11.3177 37.9513 -3.36541 0.447321 1 
283 1 9.17561 36.224 -2.89417 6.27553 5 
284 1 10.6985 35.7529 -5.17155 0.0605652 1 
285 1 8.48808 34.0346 -4.47906 0.0511537 1 
286 1 10.8997 33.983 -2.88694 6.10006 5 
287 1 8.73693 32.3939 -2.27109 7.41 5 
288 1 10.2466 31.8027 -4.63481 0.105169 1 
289 1 8.0238 30.0779 -3.88364 0.225909 1 
290 1 10.4606 30.0264 -2.56613 7.94204 5 
291 1 8.19191 28.3669 -1.70914 6.87239 5 
292 1 9.84871 27.7202 -3.87755 0.792343 1 
293 1 7.67269 26.0717 -3.22995 0.621473 1 
294 1 10.0453 26.2628 -1.13632 11.4769 5 
295 1 8.07326 24.3219 -1.20394 11.7425 5 
296 1 9.43313 23.7967 -3.47007 0.902828 1 
297 1 7.17889 22.1022 -2.69892 0.752358 5 
298 1 9.60433 21.9125 -1.18124 8.74023 5 
299 1 7.33094 20.4377 -0.564442 6.33814 5 
300 1 8.93699 19.8343 -2.92019 0.164528 1 
301 1 6.67746 18.1275 -2.23826 1.26973 5 
302 1 8.44278 15.7268 -2.14141 1.2505 1 
303 1 6.29176 14.1262 -1.43092 2.98888 5 
304 1 8.06525 11.7965 -1.85566 7.52648 5 
305 1 5.57985 10.1252 -0.904554 9.09609 5 
306 1 6.02646 5.47294 -0.418599 12.0191 5 
311 1 13.3244 41.4381 -6.36994 0.0161325 1 
313 1 13.5467 39.7035 -4.11814 0.175489 1 
314 1 15.0682 39.1967 -6.50612 0.0123356 1 
315 1 12.8711 37.4882 -5.80412 0.0289056 1 
316 1 15.3166 37.4444 -4.31306 0.142657 1 
317 1 13.0458 35.7228 -3.60425 0.337689 1 
318 1 14.6158 35.223 -5.96845 0.014524 1 
319 1 12.4314 33.5055 -5.30637 0.0359597 1 
320 1 14.8282 33.483 -3.78697 0.0964459 1 
321 1 12.6145 31.784 -3.10983 1.48125 5 
322 1 14.1951 31.1967 -5.34978 0.0871674 1 
323 1 12.043 29.473 -4.72229 0.268527 1 
324 1 14.3751 29.3992 -2.98836 1.16904 1 
325 1 12.2218 27.7846 -2.29653 2.88815 5 
326 1 13.7536 27.2529 -4.7659 0.140186 1 
327 1 11.5445 25.5398 -4.01589 0.519521 1 
328 1 13.9819 25.4684 -2.70629 7.29179 5 
329 1 11.613 23.7869 -1.80665 7.12115 5 
330 1 13.3191 23.1968 -4.08665 0.374625 1 
331 1 11.1799 21.5116 -3.48759 0.232904 1 
332 1 13.5682 21.5261 -1.61531 6.32607 5 
333 1 11.3664 19.7766 -1.29857 6.52998 5 
334 1 12.8669 19.2613 -3.62706 0.171445 1 
335 1 10.6769 17.5096 -3.00865 0.192299 1 
336 1 12.982 17.347 -1.48614 3.5626 5 
337 1 10.82 15.7987 -0.635292 3.38047 5 
338 1 12.4039 15.2428 -3.12123 0.228809 1 
339 1 10.1942 13.5379 -2.32862 0.737716 5 
340 1 12.6086 13.4701 -1.07643 7.20496 5 
341 1 12.0131 11.1418 -2.30493 0.915534 1 
342 1 9.81149 9.46275 -1.64378 3.41491 5 
343 1 11.5819 7.26155 -2.08048 7.42513 5 
344 1 8.96199 5.35083 -0.96852 11.9427 5 
345 1 11.0854 3.47095 -1.41648 7.8273 5 
346 1 -19.8733 44.8727 -7.77469 0.00478602 1 
347 1 -17.4683 44.8273 -6.18536 0.0819947 1 
349 1 -18.1224 42.6163 -7.88276 0.0012859 1 
351 1 -17.8942 40.8831 -5.62312 0.0338969 1 
354 1 16.8247 36.9326 -6.6523 0.0106004 1 
356 1 17.0254 35.1912 -4.44101 0.0449687 1 
357 1 18.5648 34.6472 -6.75406 0.00649881 1 
358 1 16.3803 32.9314 -6.08169 0.0158164 1 
359 1 18.7673 32.8679 -4.47789 0.114066 1 
360 1 16.5928 31.1393 -3.85383 0.230747 1 
361 1 18.1193 30.6501 -6.17754 0.0109726 1 
362 1 15.9253 28.9303 -5.45541 0.032396 1 
363 1 18.3188 28.918 -3.91148 0.147755 1 
364 1 16.1231 27.2064 -3.16872 0.637426 5 
365 1 17.6868 26.6524 -5.50349 0.0869517 1 
366 1 15.5367 24.9233 -4.88434 0.205924 1 
367 1 17.8626 24.8307 -3.18325 0.584027 1 
368 1 15.7124 23.1263 -2.49084 3.26902 5 
369 1 17.2314 22.6981 -4.97125 0.0955079 1 
370 1 15.0138 20.9831 -4.24928 0.214717 1 
371 1 17.474 20.9073 -2.89401 6.27322 5 
372 1 15.2031 19.1401 -2.11205 6.40326 5 
373 1 16.7869 18.7185 -4.47946 0.0511945 1 
374 1 14.6012 16.9573 -3.75564 0.14807 1 
375 1 17.036 17.0784 -2.27125 7.4057 5 
376 1 14.8423 15.3116 -1.34329 2.76725 5 
377 1 16.3235 14.7628 -3.88462 0.224733 1 
378 1 14.2037 12.98 -3.19077 0.262123 1 
379 1 16.4913 13.0517 -1.70973 6.86457 5 
380 1 14.5126 11.1764 -0.732523 7.26184 5 
381 1 15.9729 10.7571 -3.23152 0.612003 1 
382 1 13.7876 8.97682 -2.43361 1.02932 5 
383 1 16.3672 9.00505 -1.20522 11.692 5 
384 1 15.4764 6.7859 -2.69948 0.731962 5 
385 1 13.2848 5.00265 -2.06962 6.59896 5 
386 1 15.6287 5.11272 -0.569596 7.95704 5 
387 1 14.9829 2.80324 -2.25894 1.55665 5 
388 1 12.7871 1.06618 -1.69082 8.34859 5 
389 1 11.1369 0.0990925 -9.28959 0.000888968 1 
390 1 -15.9435 44.3285 -8.58209 0.00328376 1 
391 1 -13.5296 44.2913 -7.04143 0.0114941 1 
392 1 -15.7191 42.571 -6.32702 0.0346127 1 
393 1 -14.1892 42.0566 -8.68409 0.00551766 1 
394 1 -16.3688 40.3529 -7.9947 0.00452681 1 
395 1 -13.9727 40.3066 -6.37828 0.068343 1 
396 1 -16.1294 38.5949 -5.75881 0.0472125 1 
397 1 -14.6248 38.0905 -8.11327 0.00460912 1 
399 1 -14.4098 36.3344 -5.86013 0.0174478 1 
404 1 20.4893 30.6013 -4.60816 0.0514914 1 
406 1 19.8674 28.3703 -6.25366 0.0180473 1 
408 1 20.1213 26.5762 -4.01507 0.250466 1 
409 1 21.624 26.1186 -6.36974 0.0160622 1 
410 1 19.4162 24.3922 -5.64302 0.0342062 1 
411 1 21.8464 24.3846 -4.11747 0.176151 1 
412 1 19.6168 22.6335 -3.36524 0.44784 1 
413 1 21.171 22.1703 -5.80355 0.0289021 1 
414 1 18.9976 20.436 -5.17138 0.0600662 1 
415 1 21.3458 20.4052 -3.60419 0.339083 1 
416 1 19.1991 18.6667 -2.88689 6.09924 5 
417 1 20.7311 18.1891 -5.30602 0.0355885 1 
418 1 18.546 16.487 -4.63494 0.104457 1 
419 1 20.9146 16.4681 -3.1093 1.48115 5 
420 1 18.76 14.7113 -2.56593 7.9401 5 
421 1 20.3424 14.1579 -4.72229 0.267805 1 
422 1 18.148 12.4056 -3.87857 0.787233 1 
423 1 20.5206 12.4694 -2.29699 2.88589 5 
424 1 18.3429 10.9458 -1.13887 11.4254 5 
425 1 19.8427 10.2243 -4.01586 0.516847 1 
426 1 17.7319 8.4817 -3.46988 0.888776 1 
427 1 19.9128 8.46956 -1.80705 7.09625 5 
428 1 17.8993 6.59649 -1.18243 8.75975 5 
429 1 19.4788 6.19594 -3.48716 0.231699 1 
430 1 17.2377 4.51765 -2.92286 0.157556 1 
431 1 19.6641 4.46168 -1.29654 6.50858 5 
432 1 18.9752 2.19525 -3.00932 0.189152 1 
433 1 16.7404 0.413592 -2.14382 1.29629 1 
434 1 19.116 0.483261 -0.63637 3.37585 5 
435 1 13.5373 0.058197 -7.72553 0.00226956 1 
436 1 -9.82717 45.4944 -10.0827 0.000883446 1 
437 1 -12.0077 43.7766 -9.38879 0.00147326 1 
438 1 -9.60998 43.7281 -7.81207 0.00745739 1 
439 1 -11.7873 42.0192 -7.11815 0.0129911 1 
440 1 -10.2654 41.5141 -9.49399 0.000637727 1 
441 1 -12.451 39.8013 -8.79177 0.00344011 1 
442 1 -10.0431 39.7624 -7.23661 0.00917156 1 
443 1 -12.2407 38.0437 -6.53329 0.0160557 1 
444 1 -10.7098 37.5405 -8.92088 0.00103724 1 
445 1 -12.891 35.8218 -8.23604 0.00140625 1 
446 1 -10.5073 35.7959 -6.66669 0.0191956 1 
447 1 -12.682 34.0624 -5.99481 0.00949638 1 
448 1 -11.1489 33.5544 -8.36474 0.00305774 1 
450 1 -10.938 31.7955 -6.13204 0.0179538 1 
452 1 -11.5738 29.5531 -7.77372 0.00486984 1 
457 1 23.3689 23.8774 -6.50471 0.0122936 1 
459 1 23.6175 22.1255 -4.3115 0.141985 1 
460 1 25.1266 21.6129 -6.64956 0.0106194 1 
461 1 22.9166 19.9053 -5.96722 0.0143663 1 
462 1 25.3276 19.8716 -4.43858 0.045499 1 
463 1 23.1288 18.1657 -3.78557 0.0955305 1 
464 1 24.6819 17.6142 -6.07945 0.0167099 1 
465 1 22.4948 15.8811 -5.34949 0.0869639 1 
466 1 24.8934 15.8231 -3.85181 0.233897 1 
467 1 22.6755 14.0839 -2.98743 1.17509 1 
468 1 24.2232 13.6158 -5.4558 0.030662 1 
469 1 22.0516 11.9378 -4.76653 0.140488 1 
470 1 24.4211 11.8916 -3.16923 0.631226 5 
471 1 22.2799 10.1523 -2.70753 7.29232 5 
472 1 23.8322 9.60764 -4.88718 0.204334 1 
473 1 21.6175 7.88042 -4.08729 0.376595 1 
474 1 24.0111 7.81022 -2.49169 3.27667 5 
475 1 21.8681 6.20906 -1.61368 6.34437 5 
476 1 23.3124 5.66676 -4.24888 0.214054 1 
477 1 21.1665 3.9463 -3.62575 0.171358 1 
478 1 23.5049 3.82711 -2.10798 6.39601 5 
479 1 21.279 2.03193 -1.4866 3.60651 5 
480 1 22.9012 1.64354 -3.75373 0.148616 1 
481 1 -7.4274 45.453 -8.52305 0.00163552 1 
482 1 -5.89985 44.9487 -10.8888 0.000157783 1 
483 1 -8.08337 43.2291 -10.1893 0.000585961 1 
484 1 -5.68213 43.1903 -8.62846 0.00100155 1 
485 1 -7.86768 41.4731 -7.91837 0.00480414 1 
486 1 -6.33842 40.9708 -10.306 0.000527955 1 
487 1 -8.52215 39.2564 -9.61524 0.000733838 1 
488 1 -6.1236 39.223 -8.05103 0.0033394 1 
489 1 -8.31022 37.5108 -7.36834 0.0079357 1 
490 1 -6.77573 36.9966 -9.74388 0.001255 1 
491 1 -8.96576 35.2793 -9.05308 0.00275553 1 
492 1 -6.55532 35.2496 -7.51908 0.00770361 1 
493 1 -8.74986 33.5265 -6.83698 0.00900993 1 
494 1 -7.20938 33.0042 -9.17884 0.00146374 1 
495 1 -9.39426 31.2723 -8.47183 0.00611959 1 
496 1 -6.98429 31.2457 -6.94188 0.0168338 1 
497 1 -9.16888 29.5075 -6.18367 0.0822922 1 
498 1 -7.64416 29.0086 -8.57945 0.00331007 1 
499 1 -9.82218 27.2958 -7.88019 0.00125542 1 
500 1 -7.41934 27.2497 -6.32415 0.0351225 1 
501 1 -9.5933 25.561 -5.6201 0.0335248 1 
502 1 -8.06734 25.0306 -7.98995 0.0045858 1 
504 1 -7.8261 23.2702 -5.75328 0.0468465 1 
507 1 26.8686 19.3267 -6.74893 0.00688122 1 
509 1 27.0725 17.547 -4.47145 0.12081 1 
511 1 26.4195 15.3342 -6.17579 0.0109276 1 
512 1 28.7927 15.2816 -4.6046 0.0472749 1 
513 1 26.6166 13.6027 -3.91061 0.145111 1 
514 1 28.1633 13.0573 -6.25835 0.0165589 1 
515 1 25.9769 11.3391 -5.51188 0.0776626 1 
516 1 28.4009 11.2641 -4.03203 0.230189 1 
517 1 26.1558 9.51825 -3.18868 0.572605 1 
518 1 27.7028 9.07554 -5.65439 0.0337842 1 
519 1 25.5256 7.38112 -4.97388 0.0938049 1 
520 1 27.9106 7.32143 -3.37224 0.414014 1 
521 1 25.7763 5.59286 -2.89346 6.24742 5 
522 1 27.2944 5.11938 -5.17271 0.0599939 1 
523 1 25.0866 3.40406 -4.47768 0.0519082 1 
524 1 27.5009 3.35993 -2.87904 6.0699 5 
525 1 25.3385 1.76607 -2.26935 7.4167 5 
526 1 26.8455 1.17369 -4.63186 0.106871 1 
527 1 -3.50011 44.9081 -9.32592 0.00142261 1 
528 1 -1.96985 44.4045 -11.6984 0.000131181 1 
529 1 -4.15312 42.6869 -11.0029 0.000137723 1 
530 1 -1.75022 42.6504 -9.44116 0.000830947 1 
531 1 -3.93257 40.9361 -8.74956 0.00115055 1 
532 1 -2.40358 40.4263 -11.1221 0.000180103 1 
533 1 -4.58965 38.7115 -10.4305 0.000453994 1 
534 1 -2.18087 38.6791 -8.87649 0.001338 1 
535 1 -4.3716 36.9665 -8.18977 0.0026068 1 
536 1 -2.83949 36.4451 -10.5533 0.000254573 1 
537 1 -5.02331 34.725 -9.8666 0.000605997 1 
538 1 -2.62019 34.6906 -8.31413 0.00128392 1 
539 1 -4.80163 32.9627 -7.62331 0.00538271 1 
540 1 -3.2752 32.4502 -9.97773 0.000249996 1 
541 1 -5.45777 30.7292 -9.28703 0.000892101 1 
542 1 -3.0582 30.6883 -7.72277 0.00231497 1 
543 1 -5.23101 28.971 -7.03854 0.0116469 1 
544 1 -3.70921 28.4559 -9.38474 0.00149025 1 
545 1 -5.88931 26.7348 -8.67951 0.00567782 1 
546 1 -3.48839 26.6968 -7.11316 0.0131097 1 
547 1 -5.67163 24.9827 -6.37255 0.0691559 1 
548 1 -4.15069 24.4769 -8.78393 0.00340528 1 
549 1 -6.32188 22.7653 -8.10497 0.00437444 1 
550 1 -3.93842 22.7143 -6.52307 0.0160948 1 
551 1 -6.10344 21.0038 -5.84951 0.0158763 1 
552 1 -4.58658 20.4928 -8.22126 0.00106314 1 
554 1 -4.37049 18.7243 -5.97227 0.00898508 1 