ITEM: TIMESTEP
0
ITEM: NUMBER OF ATOMS
5229
ITEM: BOX BOUNDS xy xz yz pp pp ss
0.0000000000000000e+00 4.5411407640000000e+01 5.3184531469999996e+00
0.0000000000000000e+00 7.2930988311999997e+01 0.0000000000000000e+00
-1.0161519087563600e+02 1.0758809112269205e+02 0.0000000000000000e+00
ITEM: ATOMS id type x y z c_csym c_cna 
18393 2 28.6903 39.5351 2.95086 0.234383 1 
18713 2 5.98363 3.07546 2.95597 0.237052 1 
17922 2 26.0299 3.06046 2.95328 0.234299 1 
20171 2 8.6319 39.544 2.94763 0.247321 1 
36778 3 41.6083 63.0668 0.37213 5.89815 5 
36777 3 42.434 69.2172 0.107527 9.42941 5 
36776 3 9.44995 7.62383 -1.28317 7.369 5 
36775 3 9.74039 14.2785 0.102938 6.41327 5 
10561 1 37.4781 72.3916 -14.8221 2.72348e-05 1 
10563 1 39.1203 71.71 -12.5711 8.09503e-05 1 
10640 1 38.2901 66.1554 -13.666 0.000178867 1 
10641 1 38.708 68.9317 -13.1139 0.000190307 1 
10716 1 37.4559 60.5913 -14.7705 0.00011274 1 
10717 1 37.8712 63.3753 -14.2209 0.000168015 1 
10718 1 39.5034 62.6999 -11.9775 0.000716976 1 
10719 1 39.9276 65.4793 -11.4137 0.000835416 1 
10797 1 38.6768 57.1254 -13.0694 0.000218685 1 
10798 1 39.087 59.9116 -12.5294 0.000414539 1 
10874 1 37.8612 51.5641 -14.157 0.000106751 1 
10875 1 38.2686 54.3446 -13.6099 9.22709e-05 1 
10876 1 39.9004 53.6636 -11.3629 0.000360344 1 
10952 1 37.456 48.7792 -14.7048 0.000154761 1 
10954 1 39.0898 48.0972 -12.4667 0.000595002 1 
10955 1 39.4932 50.8851 -11.9146 0.000398432 1 
36774 3 7.23943 32.7437 -0.0621718 10.1744 5 
11032 1 38.2909 42.5185 -13.5319 0.000225821 1 
11033 1 38.6907 45.3048 -13.004 0.000510566 1 
11106 1 37.4787 36.9609 -14.6047 9.51402e-05 1 
11107 1 37.8862 39.7383 -14.0654 0.000103025 1 
11108 1 39.5269 39.0506 -11.8102 0.00017589 1 
11109 1 39.9336 41.827 -11.2796 0.00109884 1 
11175 1 39.7275 35.2248 -14.947 0.000104543 1 
11176 1 38.7092 33.5015 -12.8928 0.000343204 1 
11177 1 39.1188 36.275 -12.3481 0.00019458 1 
11233 1 37.8757 27.9542 -14.0135 0.000327775 1 
11234 1 38.2941 30.73 -13.4493 0.000407206 1 
11235 1 39.9328 30.0509 -11.1926 0.00149657 1 
11282 1 37.4592 25.1714 -14.5727 0.000237219 1 
11283 1 39.7084 23.4304 -14.9162 0.000135791 1 
11284 1 39.0915 24.4921 -12.334 0.0007058 1 
11285 1 39.5097 27.2782 -11.7686 0.00115501 1 
11324 1 38.2705 18.9208 -13.4198 0.000150804 1 
11325 1 38.68 21.7038 -12.8799 0.00028163 1 
11353 1 37.4561 13.3595 -14.5071 7.31758e-05 1 
11354 1 37.8622 16.1409 -13.9621 6.30658e-05 1 
11355 1 39.4958 15.4613 -11.7165 0.000301524 1 
11356 1 39.9044 18.2384 -11.1727 0.000559174 1 
11377 1 39.7112 11.6186 -14.8479 6.78105e-05 1 
11378 1 38.6904 9.89344 -12.8075 0.000210031 1 
11379 1 39.0904 12.6804 -12.2646 0.000254232 1 
11390 1 37.8874 4.32516 -13.8803 4.86961e-05 1 
11391 1 38.291 7.10736 -13.3438 0.000131918 1 
11392 1 39.9359 6.42362 -11.0972 0.000439581 1 
11394 1 37.4798 1.54444 -14.4194 2.25233e-05 1 
11395 1 39.1236 0.862548 -12.1709 7.31038e-05 1 
11396 1 39.5326 3.64344 -11.6315 0.000120412 1 
36773 3 8.06492 38.761 0.143516 6.73105 5 
11714 1 33.7999 69.625 -12.9775 0.00013831 1 
11715 1 34.2118 72.4055 -12.4335 5.80976e-05 1 
11716 1 36.4605 70.6679 -12.7729 0.000113982 1 
11717 1 35.8565 71.7251 -10.1824 0.000393791 1 
11718 1 38.515 72.7687 -9.9827 0.000408698 1 
11785 1 32.9631 64.0693 -14.0788 0.000151231 1 
11786 1 33.3824 66.8477 -13.5265 0.00012269 1 
11787 1 35.6262 65.1124 -13.8737 0.00014491 1 
11788 1 36.0456 67.8901 -13.3201 0.000150714 1 
11789 1 35.0212 66.1688 -11.2753 0.000509672 1 
11790 1 35.4448 68.9427 -10.7225 0.000762774 1 
11791 1 37.6876 67.2107 -11.0654 0.000803508 1 
11792 1 38.1056 69.9848 -10.5191 0.000685196 1 
11793 1 37.0953 68.2555 -8.45971 0.00552019 1 
11794 1 37.5074 71.0394 -7.93694 0.00308473 1 
11795 1 39.7548 69.2975 -8.25866 0.00401912 1 
11796 1 39.1639 70.3454 -5.68483 0.0216403 1 
11862 1 32.5473 61.2865 -14.6289 9.8726e-05 1 
11863 1 34.7952 59.5467 -14.9721 7.89975e-05 1 
11864 1 35.2083 62.3309 -14.4257 0.000135457 1 
11865 1 34.1764 60.6063 -12.3855 0.000434057 1 
11866 1 34.5948 63.3922 -11.8339 0.000616977 1 
11867 1 36.8387 61.6531 -12.1846 0.000562246 1 
11868 1 37.2613 64.4364 -11.6274 0.000678626 1 
11869 1 36.2224 62.7199 -9.59654 0.00326319 1 
11870 1 36.6606 65.4922 -9.02267 0.00316177 1 
11871 1 38.8934 63.7686 -9.3812 0.00364752 1 
11872 1 39.331 66.5339 -8.80019 0.00457397 1 
11873 1 38.2952 64.8325 -6.75349 0.0195102 1 
11874 1 38.7492 67.5691 -6.16363 0.0308765 1 
11941 1 33.3592 55.0408 -13.4659 0.000146485 1 
11942 1 33.7665 57.821 -12.9249 0.000177089 1 
11943 1 36.0169 56.0827 -13.2663 0.000159371 1 
11944 1 36.4253 58.8655 -12.7289 0.000350575 1 
11945 1 35.3946 57.1383 -10.6763 0.0010099 1 
11946 1 35.8013 59.9256 -10.1502 0.00239485 1 
11947 1 38.0537 58.1829 -10.4905 0.00162759 1 
11948 1 38.4662 60.9784 -9.95238 0.00245623 1 
11949 1 37.4244 59.2464 -7.93165 0.0117174 1 
11950 1 37.8466 62.0615 -7.37706 0.0158329 1 
11951 1 39.4491 61.4123 -5.17205 0.0625655 1 
11952 1 39.9256 64.183 -4.51586 0.0811308 1 
12018 1 32.5468 49.4775 -14.5637 0.000127532 1 
12019 1 32.9522 52.261 -14.0144 9.30378e-05 1 
12020 1 35.2034 50.5216 -14.3597 0.000130089 1 
12021 1 35.6096 53.3035 -13.8102 0.000142687 1 
12022 1 34.5829 51.5856 -11.7652 0.000517859 1 
12023 1 34.989 54.3625 -11.2112 0.000848277 1 
12024 1 37.2402 52.6256 -11.5616 0.000503095 1 
12025 1 37.647 55.4008 -11.0179 0.000616616 1 
12026 1 36.6173 53.6854 -8.95368 0.00296972 1 
12027 1 37.023 56.4531 -8.42786 0.00511131 1 
12028 1 39.2756 54.7185 -8.76784 0.00268195 1 
12029 1 39.6795 57.4964 -8.25489 0.00658989 1 
12030 1 38.6506 55.7693 -6.16383 0.0385464 1 
12031 1 39.0415 58.5664 -5.71972 0.0394857 1 
12098 1 34.7996 47.735 -14.906 0.000136533 1 
12099 1 33.7806 46.0073 -12.8626 0.000316489 1 
12100 1 34.1792 48.7994 -12.321 0.000526719 1 
12101 1 36.434 47.0523 -12.6652 0.000595473 1 
12102 1 36.8349 49.8439 -12.117 0.00061406 1 
12103 1 35.8105 48.1203 -10.0876 0.0024436 1 
12104 1 36.2109 50.9144 -9.51851 0.00296707 1 
12105 1 38.4655 49.166 -9.8844 0.00231069 1 
12106 1 38.8696 51.9489 -9.31516 0.00176047 1 
12107 1 37.8379 50.2433 -7.2859 0.00933154 1 
12108 1 38.2458 53.01 -6.69305 0.0110911 1 
12109 1 39.8702 52.3117 -4.42352 0.12539 1 
12176 1 32.9792 40.4376 -13.9301 0.000112438 1 
12177 1 33.3819 43.2197 -13.3952 0.000174871 1 
12178 1 35.6349 41.4781 -13.7291 0.000142683 1 
12179 1 36.0363 44.2617 -13.1975 0.000252714 1 
12180 1 35.0237 42.5314 -11.1424 0.000530318 1 
12181 1 35.4193 45.3195 -10.6206 0.00124208 1 
12182 1 37.6781 43.5705 -10.9503 0.000882241 1 
12183 1 38.0693 46.365 -10.4335 0.00274007 1 
12184 1 37.067 44.6197 -8.38178 0.00595798 1 
12185 1 37.4423 47.4343 -7.87498 0.0119164 1 
12186 1 39.7078 45.6687 -8.21406 0.0122336 1 
12187 1 39.0721 46.73 -5.68949 0.0584229 1 
12188 1 39.4738 49.5581 -5.07374 0.0312388 1 
12254 1 32.5727 37.6584 -14.4705 8.43292e-05 1 
12255 1 34.8213 35.921 -14.8086 0.000104371 1 
12256 1 35.2296 38.6986 -14.2659 9.46927e-05 1 
12257 1 34.2152 36.974 -12.212 0.000139001 1 
12258 1 34.6215 39.7521 -11.6722 0.000232473 1 
12259 1 36.8708 38.0125 -12.0083 0.000149194 1 
12260 1 37.2771 40.7894 -11.4744 0.000304159 1 
12261 1 36.2651 39.0658 -9.41134 0.000659935 1 
12262 1 36.67 41.8377 -8.88679 0.00186743 1 
12263 1 38.9204 40.0997 -9.21422 0.000890815 1 
12264 1 39.3272 42.872 -8.69765 0.00905996 1 
12265 1 38.3189 41.1485 -6.61534 0.00917123 1 
12266 1 38.7273 43.9046 -6.13054 0.110607 1 
12329 1 33.389 31.4227 -13.3128 0.000232105 1 
12330 1 33.8055 34.1969 -12.7575 0.000305744 1 
12331 1 36.0504 32.4628 -13.1004 0.000383456 1 
12332 1 36.4627 35.2361 -12.5499 0.000235406 1 
12333 1 35.4507 33.5103 -10.4934 0.00132927 1 
12334 1 35.8592 36.287 -9.95129 0.00045835 1 
12335 1 38.1043 34.5485 -10.2868 0.000822559 1 
12336 1 38.5114 37.3247 -9.7479 0.000502806 1 
12337 1 37.5015 35.5942 -7.68327 0.00301971 1 
12338 1 37.9073 38.3806 -7.14518 0.00242368 1 
12339 1 39.5473 37.6936 -4.89664 0.0190349 1 
12340 1 39.9553 40.4909 -4.32983 0.121175 1 
12392 1 32.5493 25.8654 -14.4307 0.000203192 1 
12393 1 32.9683 28.6467 -13.8738 0.000222976 1 
12394 1 35.2124 26.9102 -14.2244 0.000267976 1 
12395 1 35.6319 29.6894 -13.6622 0.000296005 1 
12396 1 34.603 27.9699 -11.6286 0.000924382 1 
12397 1 35.0306 30.7419 -11.055 0.000980403 1 
12398 1 37.2691 29.0132 -11.4098 0.0011813 1 
12399 1 37.6928 31.7802 -10.8366 0.00158953 1 
12400 1 36.6731 30.0642 -8.78621 0.0044387 1 
12401 1 37.0982 32.8182 -8.21376 0.00614985 1 
12402 1 39.3375 31.0968 -8.56264 0.00704985 1 
12403 1 39.7475 33.8574 -8.02513 0.00401459 1 
12404 1 38.752 32.1315 -5.91481 0.0275881 1 
12405 1 39.1374 34.898 -5.41879 0.0341224 1 
12448 1 32.1355 23.081 -14.9792 0.000120136 1 
12450 1 34.7966 24.1261 -14.7779 0.000180861 1 
12451 1 33.7652 22.3993 -12.7385 0.000457869 1 
12452 1 34.1793 25.1869 -12.1923 0.00076745 1 
12453 1 36.428 23.4458 -12.5403 0.00058042 1 
12454 1 36.8449 26.2342 -11.9842 0.00100096 1 
12455 1 35.8072 24.5105 -9.9648 0.00294142 1 
12456 1 36.2356 27.3001 -9.3865 0.00421862 1 
12457 1 38.4744 25.5592 -9.75241 0.00334669 1 
12458 1 38.9052 28.3401 -9.15714 0.00399452 1 
12459 1 37.8646 26.6309 -7.15802 0.0117851 1 
12460 1 38.3176 29.3912 -6.51092 0.0138918 1 
12461 1 39.9524 28.6845 -4.2216 0.0861867 1 
12496 1 32.9495 16.8379 -13.8171 0.000147428 1 
12497 1 33.3566 19.6166 -13.2753 0.000183283 1 
12498 1 35.6088 17.8791 -13.6189 0.000107567 1 
12499 1 36.0172 20.6595 -13.0805 0.000277573 1 
12500 1 34.9859 18.9348 -11.0292 0.000666515 1 
12501 1 35.3935 21.716 -10.5039 0.00183709 1 
12502 1 37.6488 19.9759 -10.8397 0.000918491 1 
12503 1 38.058 22.7636 -10.3077 0.00147227 1 
12504 1 37.0201 21.0288 -8.273 0.00705013 1 
12505 1 37.4308 23.8329 -7.74883 0.00784024 1 
12506 1 39.6883 22.0779 -8.07778 0.00438203 1 
12507 1 39.0451 23.1506 -5.54872 0.0336488 1 
12508 1 39.4908 25.938 -4.95266 0.0802384 1 
12532 1 32.1404 11.2721 -14.9105 8.90028e-05 1 
12533 1 32.544 14.057 -14.3645 0.000109602 1 
12534 1 34.7975 12.3165 -14.7088 9.58938e-05 1 
12535 1 35.202 15.0995 -14.1628 9.38335e-05 1 
12536 1 34.1754 13.3807 -12.1202 0.000500373 1 
12537 1 34.5794 16.1605 -11.5688 0.000516033 1 
12538 1 36.8339 14.4218 -11.919 0.000305276 1 
12539 1 37.2404 17.1988 -11.3735 0.000355504 1 
12540 1 36.2072 15.4861 -9.32252 0.00181007 1 
12541 1 36.6133 18.2536 -8.78221 0.00266867 1 
12542 1 38.8732 16.5171 -9.12914 0.00315069 1 
12543 1 39.2818 19.2909 -8.59787 0.00331905 1 
12544 1 38.2477 17.5606 -6.55084 0.0393746 1 
12545 1 38.6497 20.3394 -6.04955 0.022791 1 
12563 1 33.3768 7.80399 -13.2048 0.000182651 1 
12564 1 33.7754 10.5922 -12.6683 0.000358837 1 
12565 1 36.0333 8.84859 -13.0078 0.000242457 1 
12566 1 36.4319 11.6373 -12.4675 0.000338167 1 
12567 1 35.4119 9.90975 -10.4329 0.0014513 1 
12568 1 35.8056 12.706 -9.8831 0.00190302 1 
12569 1 38.0664 10.9568 -10.2313 0.00102606 1 
12570 1 38.4643 13.7454 -9.67837 0.00116625 1 
12571 1 37.4333 12.0281 -7.65665 0.00490445 1 
12572 1 37.8311 14.814 -7.07977 0.0115223 1 
12573 1 39.4516 14.1454 -4.85112 0.0325922 1 
12574 1 39.8561 16.8921 -4.20265 0.359159 1 
12581 1 32.5684 2.24078 -14.2799 3.28338e-05 1 
12582 1 32.9746 5.02118 -13.7404 7.61978e-05 1 
12583 1 35.2276 3.28286 -14.0802 3.30829e-05 1 
12584 1 35.6327 6.06394 -13.5426 9.77218e-05 1 
12585 1 34.618 4.33865 -11.4914 0.000221039 1 
12586 1 35.0191 7.11875 -10.9599 0.000696094 1 
12587 1 37.2772 5.38066 -11.2945 0.000330265 1 
12588 1 37.6744 8.16409 -10.7657 0.000775527 1 
12589 1 36.6675 6.42995 -8.71005 0.00352258 1 
12590 1 37.0497 9.22104 -8.20103 0.00512608 1 
12591 1 39.3209 7.47737 -8.5239 0.00387114 1 
12592 1 39.7 10.2738 -8.00238 0.00381722 1 
12593 1 38.6854 8.5262 -5.97059 0.0409739 1 
12594 1 39.0507 11.3467 -5.44433 0.014365 1 
12595 1 34.8194 0.502596 -14.6204 2.22238e-05 1 
12596 1 34.211 1.56002 -12.0304 7.52044e-05 1 
12597 1 36.8715 2.60172 -11.8316 8.54343e-05 1 
12598 1 35.8568 0.880737 -9.78424 0.000485149 1 
12599 1 36.2652 3.65962 -9.24005 0.00124928 1 
12600 1 38.5189 1.9231 -9.5856 0.000541601 1 
12601 1 38.9267 4.70016 -9.04226 0.00156412 1 
12602 1 37.9194 2.99292 -6.9937 0.00620264 1 
12603 1 38.3223 5.75341 -6.43941 0.0171811 1 
12604 1 39.9762 5.06919 -4.16305 0.0804843 1 
12605 1 37.5093 0.203246 -7.54845 0.00418276 1 
12606 1 39.5879 2.32377 -4.76563 0.0309253 1 
36772 3 9.13892 62.549 0.137925 4.95099 5 
12811 1 29.9086 72.0419 -14.8891 3.74509e-05 1 
12869 1 28.4747 67.5414 -13.3853 0.000192979 1 
12870 1 28.8895 70.3169 -12.8404 0.000185379 1 
12871 1 31.1378 68.5824 -13.1826 0.000147897 1 
12872 1 31.5519 71.361 -12.6388 0.00010973 1 
12873 1 30.5356 69.6339 -10.5916 0.00101633 1 
12874 1 30.9482 72.4184 -10.0531 0.00067544 1 
12875 1 33.1979 70.6795 -10.3865 0.000390741 1 
12876 1 32.5958 71.7398 -7.80558 0.00201938 1 
12877 1 35.2533 72.7899 -7.59585 0.00387502 1 
12933 1 27.641 61.9838 -14.4917 0.000117226 1 
12934 1 28.0567 64.7652 -13.9387 0.000158691 1 
12935 1 30.3016 63.0262 -14.2848 0.000111087 1 
12936 1 30.7195 65.806 -13.7323 0.000151598 1 
12937 1 29.6912 64.0866 -11.6904 0.000515969 1 
12938 1 30.1167 66.8601 -11.1324 0.00102882 1 
12939 1 32.355 65.1282 -11.48 0.000849459 1 
12940 1 32.7809 67.9001 -10.9282 0.000847628 1 
12941 1 31.7574 66.1831 -8.86411 0.00716261 1 
12942 1 32.1852 68.9472 -8.33819 0.00843289 1 
12943 1 34.4275 67.2152 -8.67035 0.00424971 1 
12944 1 34.8507 69.9932 -8.13516 0.00296268 1 
12945 1 33.8449 68.2493 -6.09013 0.0360847 1 
12946 1 34.2478 71.0507 -5.57878 0.0146241 1 
12947 1 36.5202 69.2892 -5.8782 0.0298921 1 
12948 1 36.9153 72.1038 -5.38176 0.0207577 1 
12949 1 35.9297 70.3418 -3.3895 0.115402 1 
12950 1 38.5922 71.4096 -3.15959 0.264099 1 
12951 1 38.1861 72.4627 -0.639102 5.74182 5 
13009 1 29.888 60.2426 -14.8331 5.76062e-05 1 
13010 1 28.8608 58.5164 -12.7892 0.000174553 1 
13011 1 29.2717 61.303 -12.2451 0.000337377 1 
13012 1 31.5178 59.5608 -12.5851 0.000217603 1 
13013 1 31.9319 62.3473 -12.0389 0.000497253 1 
13014 1 30.8969 60.6211 -10.001 0.00128767 1 
13015 1 31.3202 63.4112 -9.44347 0.00230395 1 
13016 1 33.556 61.6696 -9.80116 0.00247974 1 
13017 1 33.9871 64.4531 -9.23075 0.00308318 1 
13018 1 32.9409 62.7358 -7.20915 0.00965089 1 
13019 1 33.3964 65.5013 -6.59466 0.0235923 1 
13020 1 35.6135 63.7853 -6.98546 0.0176653 1 
13021 1 36.0787 66.5192 -6.39924 0.0288291 1 
13022 1 35.0254 64.7994 -4.29287 0.12926 1 
13023 1 35.514 67.5204 -3.83492 0.26293 1 
13024 1 37.7311 65.8563 -4.04784 0.147367 1 
13025 1 38.1789 68.5945 -3.52452 0.254964 1 
13026 1 37.1979 66.9394 -1.29511 2.45537 5 
13027 1 39.9304 68.0243 -0.936186 7.36818 5 
13084 1 28.0442 52.955 -13.8784 0.000111572 1 
13085 1 28.4523 55.7346 -13.3313 0.000132982 1 
13086 1 30.7018 53.9983 -13.6709 9.24483e-05 1 
13087 1 31.1096 56.7776 -13.1254 0.000141317 1 
13088 1 30.0824 55.0542 -11.074 0.000385142 1 
13089 1 30.4894 57.8321 -10.5351 0.000637261 1 
13090 1 32.7393 56.0961 -10.8691 0.000759277 1 
13091 1 33.1436 58.8776 -10.3387 0.000964122 1 
13092 1 32.1168 57.1462 -8.27312 0.00457195 1 
13093 1 32.5146 59.9374 -7.76383 0.00549388 1 
13094 1 34.7639 58.1905 -8.09398 0.00780208 1 
13095 1 35.1705 60.9944 -7.58389 0.0175052 1 
13096 1 34.1288 59.2472 -5.54181 0.0777849 1 
13097 1 34.5656 62.0632 -4.99912 0.0752647 1 
13098 1 36.7896 60.3509 -5.4127 0.111662 1 
13099 1 37.2246 63.132 -4.75887 0.0576807 1 
13100 1 36.175 61.4372 -2.74408 5.19314 2 
13101 1 36.6325 64.2193 -1.99382 2.23047 5 
13102 1 38.768 62.5769 -2.53337 5.17099 5 
13103 1 39.4184 65.2856 -1.79392 2.63836 5 
13158 1 27.234 47.3865 -14.9738 6.9261e-05 1 
13159 1 27.6379 50.1723 -14.4284 7.89766e-05 1 
13160 1 29.8906 48.4323 -14.7688 9.07772e-05 1 
13161 1 30.2951 51.2174 -14.2206 0.000104049 1 
13162 1 29.2706 49.4957 -12.1819 0.00035528 1 
13163 1 29.6751 52.2788 -11.6253 0.000468167 1 
13164 1 31.9262 50.5422 -11.9723 0.000549143 1 
13165 1 32.3327 53.321 -11.4171 0.000387715 1 
13166 1 31.3024 51.6103 -9.36982 0.00345638 1 
13167 1 31.7117 54.3748 -8.81275 0.00281876 1 
13168 1 33.9617 52.6515 -9.15789 0.00237371 1 
13169 1 34.3678 55.4184 -8.60153 0.00569986 1 
13170 1 33.341 53.7145 -6.53152 0.0189289 1 
13171 1 33.7368 56.4594 -5.97164 0.0514256 1 
13172 1 36.0016 54.7415 -6.32541 0.0194984 1 
13173 1 36.3863 57.509 -5.86906 0.0534782 1 
13174 1 35.376 55.7999 -3.6948 0.735237 1 
13175 1 35.8169 58.6894 -3.38805 4.15334 5 
13176 1 37.9826 56.875 -3.60999 4.97778 5 
13177 1 38.4119 59.7136 -3.23503 5.2293 5 
13178 1 37.0631 59.526 -0.894226 7.02117 5 
13236 1 28.4719 43.9176 -13.265 0.000146144 1 
13237 1 28.8705 46.7059 -12.7286 0.000238826 1 
13238 1 31.1269 44.9627 -13.0627 0.000199948 1 
13239 1 31.5249 47.7531 -12.5244 0.000374662 1 
13240 1 30.5077 46.0242 -10.4859 0.000817629 1 
13241 1 30.9017 48.8218 -9.9411 0.00151289 1 
13242 1 33.1592 47.0725 -10.2867 0.00138583 1 
13243 1 33.5557 49.8706 -9.73177 0.00183277 1 
13244 1 32.5314 48.1472 -7.71562 0.00538876 1 
13245 1 32.9301 50.9522 -7.12965 0.0075882 1 
13246 1 35.1833 49.1998 -7.50638 0.00754873 1 
13247 1 35.5863 51.9919 -6.89218 0.0159435 1 
13248 1 34.5573 50.2913 -4.90767 0.0351722 1 
13249 1 34.9549 53.0682 -4.23026 0.25883 1 
13250 1 37.2056 51.3182 -4.64824 0.0629137 1 
13251 1 37.6473 54.0568 -4.02374 0.207067 1 
13252 1 36.4285 52.3788 -1.94364 2.73403 5 
13253 1 37.0149 55.0813 -1.42071 9.22996 5 
13254 1 39.1685 53.2046 -1.61138 5.7094 5 
13255 1 39.5961 56.0001 -1.61876 9.75299 5 
13311 1 27.6634 38.354 -14.3419 6.47653e-05 1 
13312 1 28.0698 41.1344 -13.8014 9.70688e-05 1 
13313 1 30.3225 39.3964 -14.1354 8.47136e-05 1 
13314 1 30.7268 42.1774 -13.5969 0.000131485 1 
13315 1 29.7148 40.4517 -11.5457 0.000320036 1 
13316 1 30.1151 43.2334 -11.013 0.000486226 1 
13317 1 32.3701 41.4922 -11.3403 0.000439423 1 
13318 1 32.7676 44.2767 -10.8143 0.000743579 1 
13319 1 31.7615 42.5464 -8.754 0.00314057 1 
13320 1 32.1469 45.3388 -8.24771 0.00308146 1 
13321 1 34.4129 43.5844 -8.56318 0.00392137 1 
13322 1 34.7944 46.3848 -8.0596 0.00681232 1 
13323 1 33.7889 44.6405 -6.01083 0.0308815 1 
13324 1 34.1556 47.4712 -5.51244 0.0438244 1 
13325 1 36.4455 45.6658 -5.86066 0.0319139 1 
13326 1 36.8137 48.5148 -5.31886 0.0381067 1 
13327 1 35.8116 46.713 -3.41181 0.308968 1 
13328 1 36.1746 49.5587 -2.7215 0.588072 1 
13329 1 38.454 47.8287 -3.1736 0.195386 1 
13330 1 38.7888 50.5807 -2.44111 1.05601 5 
13331 1 37.7774 48.8017 -0.496041 6.35107 2 
13387 1 27.2536 35.5751 -14.8855 6.35716e-05 1 
13389 1 29.9143 36.6171 -14.6783 7.43413e-05 1 
13390 1 28.8981 34.8924 -12.6324 0.000192054 1 
13391 1 29.3085 37.6723 -12.0875 0.000149551 1 
13392 1 31.5583 35.934 -12.4209 0.000160021 1 
13393 1 31.9659 38.7135 -11.8769 0.000198754 1 
13394 1 30.9551 36.9909 -9.82923 0.000325151 1 
13395 1 31.3598 39.7722 -9.28038 0.00154058 1 
13396 1 33.6102 38.0302 -9.6165 0.000379214 1 
13397 1 34.0146 40.8066 -9.07631 0.00148784 1 
13398 1 33.004 39.0948 -7.01709 0.00217613 1 
13399 1 33.4076 41.8648 -6.47296 0.013125 1 
13400 1 35.6607 40.1214 -6.80608 0.00768969 1 
13401 1 36.0707 42.8734 -6.30957 0.0268361 1 
13402 1 35.0437 41.1724 -4.17635 0.0859713 1 
13403 1 35.45 43.8896 -3.80207 0.257729 1 
13404 1 37.7346 42.186 -3.98584 0.185884 1 
13405 1 38.103 44.9193 -3.63297 1.64645 5 
13406 1 36.9996 43.2023 -1.36872 4.33415 5 
13407 1 37.541 46.0814 -1.30836 7.10359 5 
13408 1 39.4042 44.1471 -0.287918 9.25694 5 
36771 3 9.87633 69.2224 -0.0574675 10.1505 5 
13464 1 28.0625 29.34 -13.7339 0.000153194 1 
13465 1 28.4824 32.1155 -13.1801 0.000181714 1 
13466 1 30.7257 30.3813 -13.5245 0.000158032 1 
13467 1 31.1451 33.1566 -12.9693 0.000223447 1 
13468 1 30.1257 31.4318 -10.9234 0.000853302 1 
13469 1 30.5455 34.208 -10.3748 0.000552427 1 
13470 1 32.7904 32.472 -10.7089 0.000920098 1 
13471 1 33.205 35.2486 -10.1599 0.000609526 1 
13472 1 32.199 33.5173 -8.11383 0.0029555 1 
13473 1 32.6038 36.307 -7.57177 0.0026949 1 
13474 1 34.8582 34.5544 -7.89554 0.00472004 1 
13475 1 35.2588 37.3455 -7.35984 0.0029566 1 
13476 1 34.2703 35.6063 -5.33574 0.0245962 1 
13477 1 34.6579 38.4167 -4.76891 0.0258947 1 
13478 1 36.9037 36.6508 -5.0925 0.0174974 1 
13479 1 37.3137 39.4544 -4.52898 0.0314454 1 
13480 1 36.3358 37.7702 -2.53014 0.259715 1 
13481 1 36.6427 40.4962 -1.86359 1.00579 5 
13482 1 39.009 38.7696 -2.27348 2.35252 5 
13483 1 39.274 41.4668 -1.50734 5.59316 5 
13531 1 27.2292 23.7765 -14.8389 7.55769e-05 1 
13532 1 27.6434 26.5602 -14.2892 0.000133124 1 
13533 1 29.8882 24.8206 -14.6345 0.000139392 1 
13534 1 30.305 27.6035 -14.0817 0.000190172 1 
13535 1 29.2728 25.8805 -12.0444 0.00059517 1 
13536 1 29.6974 28.6612 -11.4819 0.000821897 1 
13537 1 31.936 26.9255 -11.8381 0.000757741 1 
13538 1 32.3641 29.7013 -11.2722 0.000632275 1 
13539 1 31.3284 27.9841 -9.234 0.0030028 1 
13540 1 31.7716 30.7443 -8.66217 0.00415861 1 
13541 1 34.0027 29.0226 -9.01939 0.00343647 1 
13542 1 34.44 31.781 -8.43927 0.00547307 1 
13543 1 33.4206 30.0435 -6.38717 0.0252122 1 
13544 1 33.8644 32.8054 -5.84547 0.0286606 1 
13545 1 36.0894 31.0901 -6.13126 0.0223788 1 
13546 1 36.5127 33.8441 -5.59812 0.0262453 1 
13547 1 35.5198 32.1013 -3.46092 0.113044 1 
13548 1 35.9314 34.8598 -3.03948 0.21888 1 
13549 1 38.1696 33.1525 -3.23491 0.136542 1 
13550 1 38.5242 35.9677 -2.82193 0.311376 1 
13551 1 38.1436 37.2367 -0.226385 7.40049 5 
13593 1 28.4497 20.3108 -13.132 0.00015516 1 
13594 1 28.858 23.0939 -12.592 0.00027665 1 
13595 1 31.1061 21.3545 -12.9329 0.000214795 1 
13596 1 31.5166 24.1397 -12.393 0.000567909 1 
13597 1 30.4827 22.4097 -10.3471 0.00114148 1 
13598 1 30.8958 25.2013 -9.80877 0.00286327 1 
13599 1 33.1407 23.4578 -10.1607 0.0027972 1 
13600 1 33.5631 26.2514 -9.60399 0.00367656 1 
13601 1 32.5091 24.5237 -7.59505 0.0185982 1 
13602 1 32.953 27.3124 -6.99273 0.0177501 1 
13603 1 35.1879 25.5886 -7.3906 0.0164317 1 
13604 1 35.6383 28.3566 -6.75672 0.0185514 1 
13605 1 34.5613 26.6509 -4.77592 0.061569 1 
13606 1 35.0694 29.3627 -4.05041 0.11391 1 
13607 1 37.2729 27.6903 -4.52747 0.0937006 1 
13608 1 37.7543 30.4294 -3.82809 0.0802077 1 
13609 1 36.783 28.7249 -1.82151 5.05708 5 
13610 1 37.1908 31.4006 -1.02978 5.00077 5 
13611 1 39.4336 29.6214 -1.48507 3.55771 5 
13642 1 27.6356 14.7512 -14.2254 9.84804e-05 1 
13643 1 28.0422 17.5316 -13.6766 0.000104183 1 
13644 1 30.2924 15.7952 -14.0198 9.84913e-05 1 
13645 1 30.699 18.5744 -13.473 0.000154398 1 
13646 1 29.6723 16.8544 -11.4224 0.000439739 1 
13647 1 30.0782 19.6289 -10.8766 0.000737392 1 
13648 1 32.3278 17.8961 -11.219 0.00084455 1 
13649 1 32.7333 20.6713 -10.6866 0.00107305 1 
13650 1 31.7049 18.9513 -8.6106 0.00531303 1 
13651 1 32.1016 21.7216 -8.10481 0.0085628 1 
13652 1 34.3609 19.9861 -8.44131 0.00498033 1 
13653 1 34.7637 22.7768 -7.94697 0.0123085 1 
13654 1 33.723 21.0398 -5.88402 0.056944 1 
13655 1 34.1291 23.8774 -5.42876 0.113658 1 
13656 1 36.3847 22.0967 -5.74246 0.0359577 1 
13657 1 36.7934 24.931 -5.19299 0.0608996 1 
13658 1 35.7537 23.225 -3.25645 5.11727 5 
13659 1 36.1032 26.0582 -2.56994 5.36873 5 
13660 1 38.3159 24.1864 -3.03052 1.5187 5 
13661 1 38.8564 26.8388 -2.34235 5.80956 5 
13682 1 27.2311 11.9669 -14.773 7.29904e-05 1 
13684 1 29.8872 13.0126 -14.5682 0.000101732 1 
13685 1 28.8653 11.2889 -12.5277 0.000309499 1 
13686 1 29.2664 14.0766 -11.9762 0.000507283 1 
13687 1 31.5196 12.3359 -12.3241 0.000404885 1 
13688 1 31.9225 15.1204 -11.7698 0.000527293 1 
13689 1 30.8952 13.4063 -9.73331 0.00167953 1 
13690 1 31.2998 16.1858 -9.162 0.00259757 1 
13691 1 33.549 14.4507 -9.52151 0.00297556 1 
13692 1 33.9546 17.2199 -8.96216 0.00295606 1 
13693 1 32.9222 15.5285 -6.8948 0.0164618 1 
13694 1 33.3352 18.2766 -6.33709 0.0162776 1 
13695 1 35.5815 16.5468 -6.7006 0.0102668 1 
13696 1 35.9882 19.302 -6.18137 0.0351036 1 
13697 1 34.9719 17.592 -4.04246 0.147629 1 
13698 1 35.3244 20.4039 -3.64005 4.86856 5 
13699 1 37.6584 18.5536 -3.98733 0.901653 1 
13700 1 38.0203 21.3807 -3.54987 0.234681 1 
13701 1 36.9571 19.5659 -1.6385 9.70149 5 
13702 1 37.1655 22.273 -1.12156 8.3097 5 
13703 1 39.8322 20.9044 -1.37529 7.98116 5 
13717 1 28.0653 5.71586 -13.6029 0.000105241 1 
13718 1 28.4666 8.50002 -13.0668 0.000158747 1 
13719 1 30.7211 6.75996 -13.4022 0.000131639 1 
13720 1 31.1207 9.54611 -12.8671 0.000253162 1 
13721 1 30.1071 7.81694 -10.8178 0.000615532 1 
13722 1 30.4992 10.6104 -10.2882 0.00126764 1 
13723 1 32.7587 8.86244 -10.6255 0.00112199 1 
13724 1 33.1508 11.6593 -10.0881 0.00177787 1 
13725 1 32.1328 9.92581 -8.059 0.00763646 1 
13726 1 32.5211 12.7374 -7.50442 0.00663789 1 
13727 1 34.7834 10.9782 -7.86971 0.00839131 1 
13728 1 35.1711 13.7849 -7.28521 0.0114963 1 
13729 1 34.1462 12.0552 -5.31139 0.0381806 1 
13730 1 34.5359 14.8609 -4.64277 0.06965 1 
13731 1 36.7915 13.1185 -5.07481 0.0433905 1 
13732 1 37.2025 15.8556 -4.42292 0.0959541 1 
13733 1 36.1004 14.1636 -2.40323 0.460396 1 
13734 1 36.5037 16.799 -1.66783 5.5336 5 
13735 1 38.8064 15.1894 -2.13368 4.91298 5 
13736 1 39.1437 17.9614 -1.05625 11.3184 5 
13739 1 27.2507 0.154638 -14.6857 2.51825e-05 1 
13740 1 27.6595 2.93496 -14.1429 4.79545e-05 1 
13741 1 29.9098 1.19812 -14.4817 3.01727e-05 1 
13742 1 30.3172 3.97837 -13.94 6.58383e-05 1 
13743 1 29.302 2.25581 -11.8886 0.000199982 1 
13744 1 29.7082 5.0341 -11.3481 0.000431472 1 
13745 1 31.9594 3.29787 -11.6874 0.000214124 1 
13746 1 32.3629 6.07633 -11.1515 0.000518429 1 
13747 1 31.3531 4.35362 -9.08749 0.00174656 1 
13748 1 31.7519 7.12865 -8.56605 0.00348308 1 
13749 1 34.0104 5.38846 -8.90082 0.00274119 1 
13750 1 34.404 8.16943 -8.3908 0.00566056 1 
13751 1 33.4111 6.42109 -6.3177 0.0290786 1 
13752 1 33.781 9.21215 -5.86324 0.0448206 1 
13753 1 36.0606 7.46345 -6.13883 0.0373776 1 
13754 1 36.4055 10.2798 -5.65994 0.0335129 1 
13755 1 35.4371 8.45492 -3.6227 0.423425 1 
13756 1 35.7803 11.3941 -3.14878 0.235579 1 
13757 1 37.9906 9.59306 -3.46482 0.327237 1 
13758 1 38.3991 12.4679 -2.88974 0.226724 1 
13759 1 37.4436 10.7609 -0.953838 5.74677 5 
13760 1 31.5518 0.518001 -12.2303 7.70757e-05 1 
13761 1 30.9457 1.57871 -9.63605 0.000675179 1 
13762 1 33.6043 2.61921 -9.43685 0.00105718 1 
13763 1 32.5949 0.903882 -7.39477 0.00404743 1 
13764 1 33.0026 3.67397 -6.82334 0.00893552 1 
13765 1 35.2547 1.9488 -7.19299 0.00699952 1 
13766 1 35.661 4.70963 -6.62891 0.0133313 1 
13767 1 34.669 3.00842 -4.55634 0.0268808 1 
13768 1 35.0667 5.73041 -3.97345 0.15141 1 
13769 1 37.3207 4.06171 -4.36672 0.0519453 1 
13770 1 37.7114 6.79055 -3.79056 0.167044 1 
13771 1 36.691 5.03974 -1.59145 5.56448 2 
13772 1 37.0683 7.81738 -1.14877 7.79343 5 
13773 1 39.3471 6.12199 -1.46952 7.52018 5 
13774 1 39.6728 8.91164 -1.43402 6.15407 5 
13775 1 34.2534 0.233994 -5.1696 0.0340475 1 
13776 1 36.9297 1.29942 -4.98023 0.055198 1 
13777 1 36.4049 2.35868 -2.30691 2.63479 5 
13778 1 38.6648 0.614124 -2.77944 5.80239 5 
13779 1 38.9985 3.36134 -2.11905 4.84042 5 
13939 1 22.3387 71.6925 -14.9446 0.000102104 1 
13941 1 24.9975 72.7343 -14.7458 6.06136e-05 1 
13942 1 23.9788 71.0094 -12.6902 0.000229049 1 
13943 1 26.6388 72.0516 -12.4968 0.000175682 1 
13990 1 23.1491 65.4628 -13.7959 0.000369443 1 
13991 1 23.566 68.2365 -13.2376 0.000316174 1 
13992 1 25.8115 66.5021 -13.5891 0.000234032 1 
13993 1 26.2274 69.2755 -13.0375 0.000231213 1 
13994 1 25.2071 67.5545 -10.9828 0.000917119 1 
13995 1 25.6226 70.3235 -10.4388 0.000920711 1 
13996 1 27.8722 68.5913 -10.7854 0.0010646 1 
13997 1 28.2839 71.3684 -10.2535 0.0012736 1 
13998 1 27.2766 69.6299 -8.19146 0.00637161 1 
13999 1 27.681 72.4244 -7.6813 0.00729457 1 
14000 1 29.9352 70.6852 -8.01857 0.00861151 1 
14001 1 29.3391 71.7525 -5.48124 0.052739 1 
14002 1 31.9915 72.8113 -5.22231 0.0205821 1 
14048 1 22.3195 59.897 -14.9087 0.000130256 1 
14049 1 22.7326 62.6824 -14.3562 0.000256285 1 
14050 1 24.9806 60.941 -14.7004 0.000130662 1 
14051 1 25.3946 63.7247 -14.1463 0.000245249 1 
14052 1 24.3653 62.0047 -12.1137 0.000752239 1 
14053 1 24.7848 64.7862 -11.5464 0.00121956 1 
14054 1 27.0279 63.0465 -11.9005 0.000698088 1 
14055 1 27.4503 65.8227 -11.3387 0.000707289 1 
14056 1 26.4188 64.1117 -9.29926 0.00470321 1 
14057 1 26.8524 66.8694 -8.72568 0.00380654 1 
14058 1 29.0892 65.1456 -9.08561 0.00279336 1 
14059 1 29.5252 67.9034 -8.52835 0.00884387 1 
14060 1 28.5024 66.1882 -6.45527 0.0184288 1 
14061 1 28.9523 68.927 -5.94233 0.0789322 1 
14062 1 31.1781 67.2338 -6.21794 0.0722352 1 
14063 1 31.5847 69.9977 -5.77942 0.0919548 1 
14064 1 30.6284 68.2887 -3.50372 1.11175 5 
14065 1 30.9465 71.0591 -3.24706 6.70494 5 
14066 1 33.2472 69.272 -3.58602 0.394359 1 
14067 1 33.6303 72.1324 -3.03822 0.0945933 1 
14068 1 32.6238 70.2612 -1.18824 7.09246 5 
14069 1 35.2901 71.4139 -0.952088 1.06843 5 
14117 1 23.5435 56.43 -13.2063 0.000179157 1 
14118 1 23.9526 59.2156 -12.6653 0.000358708 1 
14119 1 26.203 57.4731 -12.9973 0.000205886 1 
14120 1 26.6127 60.2595 -12.4549 0.000342249 1 
14121 1 25.583 58.5306 -10.4189 0.00121181 1 
14122 1 25.9948 61.3252 -9.87569 0.00226268 1 
14123 1 28.2409 59.5745 -10.2076 0.00108854 1 
14124 1 28.6565 62.3689 -9.65718 0.00221662 1 
14125 1 27.6159 60.6421 -7.64242 0.00767888 1 
14126 1 28.0469 63.4444 -7.05751 0.0171104 1 
14127 1 30.2742 61.6903 -7.42178 0.00776998 1 
14128 1 30.7236 64.4762 -6.8281 0.0092599 1 
14129 1 29.6474 62.7773 -4.8358 0.0610049 1 
14130 1 30.165 65.5389 -4.18541 0.0840886 1 
14131 1 32.3499 63.7766 -4.58626 0.0632682 1 
14132 1 32.8322 66.5222 -3.92368 0.203997 1 
14133 1 31.8107 64.7357 -1.93181 5.193 5 
14134 1 32.2456 67.5167 -1.12197 6.65329 5 
14135 1 34.4495 65.7996 -1.55836 1.89433 5 
14136 1 34.9468 68.5513 -1.39948 4.24465 5 
14183 1 22.7267 50.8665 -14.2957 5.49151e-05 1 
14184 1 23.1343 53.6484 -13.7498 7.79814e-05 1 
14185 1 25.386 51.9106 -14.0882 5.48494e-05 1 
14186 1 25.7942 54.6916 -13.5403 0.000126721 1 
14187 1 24.767 52.9687 -11.4979 0.000258486 1 
14188 1 25.1764 55.7466 -10.9509 0.000917043 1 
14189 1 27.4251 54.0127 -11.2818 0.000679305 1 
14190 1 27.8334 56.7884 -10.7407 0.00104539 1 
14191 1 26.804 55.0667 -8.67631 0.00583584 1 