ITEM: TIMESTEP
0
ITEM: NUMBER OF ATOMS
3448
ITEM: BOX BOUNDS xy xz yz pp pp ss
0.0000000000000000e+00 5.1228898094999998e+01 1.2807224524000000e+01
0.0000000000000000e+00 5.0259178265999999e+01 0.0000000000000000e+00
-1.2443464638731767e+02 1.3391538298174663e+02 0.0000000000000000e+00
ITEM: ATOMS id type x y z c_csym c_cna 
17 1 38.917 49.3238 -12.8609 0.000400519 1 
47 1 39.1316 44.3773 -13.0867 0.000268128 1 
59 1 38.2742 46.8788 -14.1935 0.000146391 1 
61 1 41.052 46.1737 -14.2196 0.000177975 1 
63 1 41.6957 48.6188 -12.8821 0.000383478 1 
65 1 44.4663 47.9162 -12.904 0.000274858 1 
66 1 46.383 49.7129 -14.0447 0.000120976 1 
129 1 39.3432 39.4352 -13.3165 0.000331654 1 
130 1 38.4883 41.9332 -14.425 0.000160919 1 
132 1 41.2621 41.2297 -14.4522 0.000139431 1 
134 1 41.9056 43.6744 -13.1093 0.000255198 1 
136 1 44.6737 42.9723 -13.1372 0.000190097 1 
159 1 43.824 45.4704 -14.2459 0.000145333 1 
161 1 46.5931 44.7661 -14.278 0.000131352 1 
163 1 47.2328 47.2127 -12.9354 0.00023059 1 
165 1 50.0022 46.506 -12.9765 0.000275887 1 
166 1 49.1524 49.0067 -14.0805 0.00010367 1 
168 1 13.5039 48.2977 -14.1214 0.000133841 1 
170 1 16.9227 50.0338 -12.8297 0.000394044 1 
253 1 39.5561 34.4889 -13.5666 0.000261817 1 
255 1 40.1961 36.9391 -12.2111 0.000844292 1 
257 1 42.9608 36.2362 -12.2434 0.00079219 1 
285 1 38.7012 36.9898 -14.6646 0.000175795 1 
287 1 41.4727 36.2854 -14.6956 0.000179709 1 
289 1 42.1125 38.733 -13.3447 0.000366647 1 
291 1 44.8796 38.0292 -13.3812 0.000432709 1 
292 1 44.032 40.5263 -14.4832 0.000127576 1 
294 1 46.8024 39.8207 -14.5206 0.000147825 1 
296 1 47.4423 42.2674 -13.1748 0.000213398 1 
298 1 11.795 41.5582 -13.2183 0.000193569 1 
329 1 49.364 44.0589 -14.3168 0.000155795 1 
331 1 13.7184 43.3492 -14.3583 0.00014895 1 
333 1 14.3573 45.7954 -13.021 0.000311799 1 
335 1 17.1398 45.0845 -13.0593 0.000243478 1 
336 1 16.2825 47.5874 -14.1609 0.000147569 1 
338 1 19.0633 46.8788 -14.1935 0.000146391 1 
340 1 19.7061 49.3238 -12.8609 0.000400519 1 
342 1 22.4849 48.6188 -12.8821 0.000383478 1 
505 1 39.7678 29.5348 -13.8103 0.00014244 1 
506 1 38.915 32.0381 -14.9135 0.00012095 1 
507 1 40.4086 31.9854 -12.4662 0.000341285 1 
508 1 41.6856 31.3327 -14.9452 8.74372e-05 1 
509 1 43.1745 31.2804 -12.5012 0.000246456 1 
510 1 42.3244 33.7842 -13.5984 0.000231716 1 
512 1 45.0935 33.0767 -13.6389 0.000229833 1 
514 1 45.7277 35.5293 -12.2897 0.000819783 1 
516 1 10.0824 34.8177 -12.3431 0.000702822 1 
555 1 44.2422 35.5797 -14.7319 0.000196516 1 
557 1 47.0144 34.8713 -14.7741 0.000207576 1 
559 1 47.6515 37.3214 -13.4262 0.000431955 1 
561 1 12.0091 36.6109 -13.4719 0.000298935 1 
562 1 11.1555 39.1122 -14.5618 0.000154657 1 
564 1 13.9345 38.4027 -14.6011 0.000157167 1 
566 1 14.5752 40.8474 -13.259 0.000219125 1 
568 1 17.3563 40.1392 -13.2908 0.000282128 1 
609 1 16.4986 42.6396 -14.3953 0.000141765 1 
611 1 19.2775 41.9332 -14.425 0.000160919 1 
613 1 19.9207 44.3773 -13.0867 0.000268128 1 
615 1 22.6947 43.6744 -13.1093 0.000255198 1 
616 1 21.8412 46.1737 -14.2196 0.000177975 1 
618 1 24.6132 45.4704 -14.2459 0.000145333 1 
620 1 25.2554 47.9162 -12.904 0.000274858 1 
622 1 28.022 47.2127 -12.9354 0.00023059 1 
660 1 27.1722 49.7129 -14.0447 0.000120976 1 
662 1 29.9415 49.0067 -14.0805 0.00010367 1 
858 1 39.9794 24.5833 -14.0447 0.000120976 1 
860 1 40.6186 27.0321 -12.704 0.000192097 1 
862 1 43.3867 26.326 -12.7426 0.000207766 1 
900 1 42.5364 28.8293 -13.8442 0.000122128 1 
902 1 45.3078 28.121 -13.885 0.000142858 1 
903 1 44.4562 30.6253 -14.9825 7.44893e-05 1 
904 1 45.9453 30.5718 -12.5453 0.000212556 1 
906 1 10.3018 29.8597 -12.5917 0.000225562 1 
907 1 9.44638 32.3659 -13.6843 0.000248038 1 
909 1 12.2269 31.6542 -13.7261 0.000261767 1 
911 1 12.8668 34.1046 -12.3893 0.000738335 1 
913 1 15.6521 33.3944 -12.4204 0.000742114 1 
953 1 11.3702 34.1608 -14.8171 0.000180181 1 
955 1 14.1508 33.4509 -14.8545 0.000165893 1 
957 1 14.7919 35.9007 -13.51 0.000244826 1 
959 1 17.5719 35.1937 -13.5396 0.000271729 1 
960 1 16.7143 37.695 -14.6348 0.000177438 1 
961 1 18.2141 37.6418 -12.186 0.000889281 1 
962 1 19.4904 36.9898 -14.6646 0.000175795 1 
963 1 20.9853 36.9391 -12.2111 0.000844292 1 
964 1 20.1323 39.4352 -13.3165 0.000331654 1 
966 1 22.9017 38.733 -13.3447 0.000366647 1 
1011 1 22.0513 41.2297 -14.4522 0.000139431 1 
1013 1 24.8212 40.5263 -14.4832 0.000127576 1 
1015 1 25.4629 42.9723 -13.1372 0.000190097 1 
1017 1 28.2314 42.2674 -13.1748 0.000213398 1 
1018 1 27.3823 44.7661 -14.278 0.000131352 1 
1020 1 30.1532 44.0589 -14.3168 0.000155795 1 
1022 1 30.7914 46.506 -12.9765 0.000275887 1 
1024 1 33.5681 45.7954 -13.021 0.000311799 1 
1069 1 32.7148 48.2977 -14.1214 0.000133841 1 
1071 1 35.4934 47.5874 -14.1609 0.000147569 1 
1073 1 36.1335 50.0338 -12.8297 0.000394044 1 
1348 1 38.2701 17.8427 -13.1372 0.000190097 1 
1384 1 40.1895 19.6365 -14.278 0.000131352 1 
1386 1 40.8292 22.0831 -12.9354 0.00023059 1 
1388 1 43.5986 21.3764 -12.9765 0.000275887 1 
1389 1 42.7488 23.8771 -14.0805 0.00010367 1 
1391 1 7.10033 23.1682 -14.1214 0.000133841 1 
1393 1 7.7386 25.6164 -12.7875 0.000315469 1 
1395 1 10.5191 24.9042 -12.8297 0.000394044 1 
1438 1 9.66275 27.4102 -13.9274 0.000182309 1 
1440 1 12.4438 26.6995 -13.9641 0.000206243 1 
1442 1 13.085 29.1477 -12.6291 0.000272966 1 
1444 1 15.867 28.4399 -12.6548 0.0003878 1 
1445 1 15.0088 30.9448 -13.7582 0.000254203 1 
1447 1 17.786 30.2391 -13.7837 0.000212905 1 
1449 1 18.4291 32.6889 -12.4422 0.000568747 1 
1451 1 21.1977 31.9854 -12.4662 0.000341285 1 
1491 1 16.9298 32.7435 -14.8852 0.000150002 1 
1493 1 19.7042 32.0381 -14.9135 0.00012095 1 
1495 1 20.3453 34.4889 -13.5666 0.000261817 1 
1497 1 23.1136 33.7842 -13.5984 0.000231716 1 
1498 1 22.2619 36.2854 -14.6956 0.000179709 1 
1499 1 23.7499 36.2362 -12.2434 0.00079219 1 
1500 1 25.0313 35.5797 -14.7319 0.000196516 1 
1501 1 26.5169 35.5293 -12.2897 0.000819783 1 
1502 1 25.6687 38.0292 -13.3812 0.000432709 1 
1504 1 28.4407 37.3214 -13.4262 0.000431955 1 
1548 1 27.5916 39.8207 -14.5206 0.000147825 1 
1550 1 30.3663 39.1122 -14.5618 0.000154657 1 
1552 1 31.0058 41.5582 -13.2183 0.000193569 1 
1554 1 33.786 40.8474 -13.259 0.000219125 1 
1555 1 32.9293 43.3492 -14.3583 0.00014895 1 
1557 1 35.7094 42.6396 -14.3953 0.000141765 1 
1559 1 36.3506 45.0845 -13.0593 0.000243478 1 
2016 1 38.4759 12.8996 -13.3812 0.000432709 1 
2018 1 40.3988 14.6911 -14.5206 0.000147825 1 
2020 1 41.0387 17.1378 -13.1748 0.000213398 1 
2022 1 5.39136 16.4286 -13.2183 0.000193569 1 
2061 1 42.9604 18.9294 -14.3168 0.000155795 1 
2063 1 7.31481 18.2196 -14.3583 0.00014895 1 
2065 1 7.95366 20.6658 -13.021 0.000311799 1 
2067 1 10.7362 19.9549 -13.0593 0.000243478 1 
2068 1 9.87891 22.4578 -14.1609 0.000147569 1 
2070 1 12.6597 21.7492 -14.1935 0.000146391 1 
2072 1 13.3025 24.1943 -12.8609 0.000400519 1 
2074 1 16.0813 23.4892 -12.8821 0.000383478 1 
2119 1 15.2243 25.992 -13.992 0.000230471 1 
2121 1 17.999 25.2875 -14.0162 0.000185818 1 
2123 1 18.6403 27.7358 -12.6759 0.000253751 1 
2125 1 21.4077 27.0321 -12.704 0.000192097 1 
2126 1 20.557 29.5348 -13.8103 0.00014244 1 
2128 1 23.3256 28.8293 -13.8442 0.000122128 1 
2130 1 23.9637 31.2804 -12.5012 0.000246456 1 
2132 1 26.7345 30.5718 -12.5453 0.000212556 1 
2173 1 22.4747 31.3327 -14.9452 8.74372e-05 1 
2175 1 25.2454 30.6253 -14.9825 7.44893e-05 1 
2177 1 25.8826 33.0767 -13.6389 0.000229833 1 
2179 1 28.6572 32.3659 -13.6843 0.000248038 1 
2180 1 27.8035 34.8713 -14.7741 0.000207576 1 
2181 1 29.2933 34.8177 -12.3431 0.000702822 1 
2182 1 30.581 34.1608 -14.8171 0.000180181 1 
2183 1 32.0777 34.1046 -12.3893 0.000738335 1 
2184 1 31.22 36.6109 -13.4719 0.000298935 1 
2186 1 34.0027 35.9007 -13.51 0.000244826 1 
2190 1 37.4249 37.6418 -12.186 0.000889281 1 
2231 1 33.1454 38.4027 -14.6011 0.000157167 1 
2233 1 35.9252 37.695 -14.6348 0.000177438 1 
2235 1 36.5672 40.1392 -13.2908 0.000282128 1 
2797 1 38.6899 7.94709 -13.6389 0.000229833 1 
2799 1 39.3241 10.3997 -12.2897 0.000819783 1 
2801 1 3.67881 9.68808 -12.3431 0.000702822 1 
2834 1 40.6108 9.74169 -14.7741 0.000207576 1 
2836 1 41.2479 12.1919 -13.4262 0.000431955 1 
2838 1 5.60553 11.4813 -13.4719 0.000298935 1 
2839 1 4.75188 13.9826 -14.5618 0.000154657 1 
2841 1 7.53092 13.2731 -14.6011 0.000157167 1 
2843 1 8.1716 15.7178 -13.259 0.000219125 1 
2845 1 10.9527 15.0096 -13.2908 0.000282128 1 
2888 1 10.095 17.51 -14.3953 0.000141765 1 
2890 1 12.8739 16.8036 -14.425 0.000160919 1 
2892 1 13.5171 19.2477 -13.0867 0.000268128 1 
2894 1 16.2911 18.5448 -13.1093 0.000255198 1 
2895 1 15.4376 21.0441 -14.2196 0.000177975 1 
2897 1 18.2095 20.3408 -14.2459 0.000145333 1 
2899 1 18.8518 22.7866 -12.904 0.000274858 1 
2901 1 21.6184 22.0831 -12.9354 0.00023059 1 
2945 1 20.7686 24.5833 -14.0447 0.000120976 1 
2947 1 23.5379 23.8771 -14.0805 0.00010367 1 
2949 1 24.1759 26.326 -12.7426 0.000207766 1 
2951 1 26.9494 25.6164 -12.7875 0.000315469 1 
2952 1 26.0969 28.121 -13.885 0.000142858 1 
2954 1 28.8736 27.4102 -13.9274 0.000182309 1 
2956 1 29.5127 29.8597 -12.5917 0.000225562 1 
2958 1 32.2958 29.1477 -12.6291 0.000272966 1 
3003 1 31.4377 31.6542 -13.7261 0.000261767 1 
3005 1 34.2197 30.9448 -13.7582 0.000254203 1 
3006 1 33.3617 33.4509 -14.8545 0.000165893 1 
3007 1 34.8629 33.3944 -12.4204 0.000742114 1 
3008 1 36.1407 32.7435 -14.8852 0.000150002 1 
3009 1 37.64 32.6889 -12.4422 0.000568747 1 
3010 1 36.7828 35.1937 -13.5396 0.000271729 1 
3745 1 38.9041 2.99144 -13.885 0.000142858 1 
3746 1 39.5417 5.4422 -12.5453 0.000212556 1 
3748 1 3.89823 4.73011 -12.5917 0.000225562 1 
3749 1 3.04277 7.23634 -13.6843 0.000248038 1 
3751 1 5.82325 6.52458 -13.7261 0.000261767 1 
3753 1 6.46321 8.97502 -12.3893 0.000738335 1 
3755 1 9.24847 8.26479 -12.4204 0.000742114 1 
3793 1 4.96658 9.03119 -14.8171 0.000180181 1 
3795 1 7.74723 8.32128 -14.8545 0.000165893 1 
3797 1 8.38825 10.7711 -13.51 0.000244826 1 
3799 1 11.1683 10.0641 -13.5396 0.000271729 1 
3800 1 10.3107 12.5654 -14.6348 0.000177438 1 
3801 1 11.8105 12.5123 -12.186 0.000889281 1 
3802 1 13.0868 11.8602 -14.6646 0.000175795 1 
3803 1 14.5817 11.8095 -12.2111 0.000844292 1 
3804 1 13.7287 14.3056 -13.3165 0.000331654 1 
3806 1 16.4981 13.6034 -13.3447 0.000366647 1 
3851 1 15.6476 16.1001 -14.4522 0.000139431 1 
3853 1 18.4176 15.3967 -14.4832 0.000127576 1 
3855 1 19.0592 17.8427 -13.1372 0.000190097 1 
3857 1 21.8278 17.1378 -13.1748 0.000213398 1 
3858 1 20.9787 19.6365 -14.278 0.000131352 1 
3860 1 23.7496 18.9294 -14.3168 0.000155795 1 
3862 1 24.3878 21.3764 -12.9765 0.000275887 1 
3864 1 27.1645 20.6658 -13.021 0.000311799 1 
3909 1 26.3112 23.1682 -14.1214 0.000133841 1 
3911 1 29.0897 22.4578 -14.1609 0.000147569 1 
3913 1 29.7299 24.9042 -12.8297 0.000394044 1 
3915 1 32.5134 24.1943 -12.8609 0.000400519 1 
3916 1 31.6547 26.6995 -13.9641 0.000206243 1 
3918 1 34.4351 25.992 -13.992 0.000230471 1 
3920 1 35.0778 28.4399 -12.6548 0.0003878 1 
3922 1 37.8511 27.7358 -12.6759 0.000253751 1 
3966 1 36.9968 30.2391 -13.7837 0.000212905 1 
4788 1 1.33499 0.486778 -12.7875 0.000315469 1 
4823 1 3.25914 2.28062 -13.9274 0.000182309 1 
4825 1 6.04022 1.56994 -13.9641 0.000206243 1 
4827 1 6.6814 4.01809 -12.6291 0.000272966 1 
4829 1 9.46335 3.31027 -12.6548 0.0003878 1 
4830 1 8.60521 5.81522 -13.7582 0.000254203 1 
4832 1 11.3824 5.10947 -13.7837 0.000212905 1 
4834 1 12.0255 7.55935 -12.4422 0.000568747 1 
4836 1 14.7941 6.85582 -12.4662 0.000341285 1 
4876 1 10.5262 7.61395 -14.8852 0.000150002 1 
4878 1 13.3005 6.90854 -14.9135 0.00012095 1 
4880 1 13.9416 9.35936 -13.5666 0.000261817 1 
4882 1 16.71 8.65463 -13.5984 0.000231716 1 
4883 1 15.8582 11.1558 -14.6956 0.000179709 1 
4884 1 17.3463 11.1066 -12.2434 0.00079219 1 
4885 1 18.6277 10.4502 -14.7319 0.000196516 1 
4886 1 20.1133 10.3997 -12.2897 0.000819783 1 
4887 1 19.2651 12.8996 -13.3812 0.000432709 1 
4889 1 22.0371 12.1919 -13.4262 0.000431955 1 
4934 1 21.188 14.6911 -14.5206 0.000147825 1 
4936 1 23.9627 13.9826 -14.5618 0.000154657 1 
4938 1 24.6022 16.4286 -13.2183 0.000193569 1 
4940 1 27.3824 15.7178 -13.259 0.000219125 1 
4941 1 26.5257 18.2196 -14.3583 0.00014895 1 
4943 1 29.3058 17.51 -14.3953 0.000141765 1 
4945 1 29.947 19.9549 -13.0593 0.000243478 1 
4947 1 32.728 19.2477 -13.0867 0.000268128 1 
4991 1 31.8706 21.7492 -14.1935 0.000146391 1 
4993 1 34.6484 21.0441 -14.2196 0.000177975 1 
4995 1 35.2921 23.4892 -12.8821 0.000383478 1 
4997 1 38.0627 22.7866 -12.904 0.000274858 1 
4998 1 37.2099 25.2875 -14.0162 0.000185818 1 
6007 1 8.82066 0.862426 -13.992 0.000230471 1 
6009 1 11.5954 0.157908 -14.0162 0.000185818 1 
6011 1 12.2367 2.6062 -12.6759 0.000253751 1 
6013 1 15.0041 1.90249 -12.704 0.000192097 1 
6014 1 14.1534 4.40518 -13.8103 0.00014244 1 
6016 1 16.922 3.69967 -13.8442 0.000122128 1 
6018 1 17.5601 6.15084 -12.5012 0.000246456 1 
6020 1 20.3309 5.4422 -12.5453 0.000212556 1 
6055 1 16.0711 6.2031 -14.9452 8.74372e-05 1 
6057 1 18.8418 5.49574 -14.9825 7.44893e-05 1 
6059 1 19.479 7.94709 -13.6389 0.000229833 1 
6061 1 22.2536 7.23634 -13.6843 0.000248038 1 
6062 1 21.3999 9.74169 -14.7741 0.000207576 1 
6063 1 22.8896 9.68808 -12.3431 0.000702822 1 
6064 1 24.1774 9.03119 -14.8171 0.000180181 1 
6065 1 25.6741 8.97502 -12.3893 0.000738335 1 
6066 1 24.8164 11.4813 -13.4719 0.000298935 1 
6068 1 27.5991 10.7711 -13.51 0.000244826 1 
6072 1 31.0213 12.5123 -12.186 0.000889281 1 
6110 1 26.7418 13.2731 -14.6011 0.000157167 1 
6112 1 29.5216 12.5654 -14.6348 0.000177438 1 
6114 1 30.1636 15.0096 -13.2908 0.000282128 1 
6116 1 32.9396 14.3056 -13.3165 0.000331654 1 
6117 1 32.0847 16.8036 -14.425 0.000160919 1 
6119 1 34.8585 16.1001 -14.4522 0.000139431 1 
6121 1 35.5019 18.5448 -13.1093 0.000255198 1 
6167 1 37.4204 20.3408 -14.2459 0.000145333 1 
7240 1 17.7723 1.1964 -12.7426 0.000207766 1 
7242 1 20.5458 0.486778 -12.7875 0.000315469 1 
7243 1 19.6933 2.99144 -13.885 0.000142858 1 
7245 1 22.47 2.28062 -13.9274 0.000182309 1 
7247 1 23.1091 4.73011 -12.5917 0.000225562 1 
7249 1 25.8922 4.01809 -12.6291 0.000272966 1 
7277 1 25.0341 6.52458 -13.7261 0.000261767 1 
7279 1 27.816 5.81522 -13.7582 0.000254203 1 
7280 1 26.9581 8.32128 -14.8545 0.000165893 1 
7281 1 28.4593 8.26479 -12.4204 0.000742114 1 
7282 1 29.737 7.61395 -14.8852 0.000150002 1 
7283 1 31.2363 7.55935 -12.4422 0.000568747 1 
7284 1 30.3792 10.0641 -13.5396 0.000271729 1 
7286 1 33.1525 9.35936 -13.5666 0.000261817 1 
7288 1 33.7925 11.8095 -12.2111 0.000844292 1 
7290 1 36.5571 11.1066 -12.2434 0.00079219 1 
7318 1 32.2976 11.8602 -14.6646 0.000175795 1 
7320 1 35.0691 11.1558 -14.6956 0.000179709 1 
7322 1 35.7089 13.6034 -13.3447 0.000366647 1 
7324 1 37.6284 15.3967 -14.4832 0.000127576 1 
8464 1 25.2511 1.56994 -13.9641 0.000206243 1 
8466 1 28.0315 0.862426 -13.992 0.000230471 1 
8468 1 28.6742 3.31027 -12.6548 0.0003878 1 
8470 1 31.4475 2.6062 -12.6759 0.000253751 1 
8489 1 30.5932 5.10947 -13.7837 0.000212905 1 
8491 1 33.3642 4.40518 -13.8103 0.00014244 1 
8492 1 32.5114 6.90854 -14.9135 0.00012095 1 
8493 1 34.0049 6.85582 -12.4662 0.000341285 1 
8494 1 35.282 6.2031 -14.9452 8.74372e-05 1 
8495 1 36.7709 6.15084 -12.5012 0.000246456 1 
8496 1 35.9208 8.65463 -13.5984 0.000231716 1 
8521 1 37.8386 10.4502 -14.7319 0.000196516 1 
9640 1 30.8062 0.157908 -14.0162 0.000185818 1 
9642 1 34.2149 1.90249 -12.704 0.000192097 1 
9644 1 36.9831 1.1964 -12.7426 0.000207766 1 
9653 1 36.1328 3.69967 -13.8442 0.000122128 1 
9655 1 38.0526 5.49574 -14.9825 7.44893e-05 1 
1 1 38.0765 46.1474 -0.826843 4.75757 5 
2 1 39.546 45.6289 -3.31198 0.281961 1 
3 1 40.8368 45.4592 -0.925558 4.74892 5 
4 1 40.0947 48.0627 -1.79543 6.98568 5 
5 1 42.9056 47.3482 -1.60839 3.83508 5 
6 1 38.7198 48.1083 -4.38146 0.398581 1 
7 1 40.0056 47.4147 -6.81968 0.0186206 1 
8 1 41.4856 47.3627 -4.3044 0.131235 1 
9 1 40.6491 49.8538 -5.52082 0.0264394 1 
10 1 42.0679 49.7754 -3.00731 6.77248 5 
11 1 43.3992 49.1453 -5.46771 0.0143281 1 
12 1 44.8213 49.1091 -2.93143 2.13524 5 
13 1 38.5003 47.4698 -9.28828 0.00314085 1 
14 1 39.1461 49.9103 -7.97679 0.00907176 1 
15 1 40.4213 49.2653 -10.4192 0.00144446 1 
16 1 41.9223 49.2061 -7.95962 0.0036385 1 
18 1 38.2916 40.6613 -5.86924 0.0436291 1 
19 1 39.716 40.6153 -3.23855 1.22853 5 
20 1 38.9668 43.07 -4.60723 0.297638 1 
21 1 40.3303 43.0022 -2.05762 6.58445 5 
22 1 41.6925 42.3845 -4.53522 0.0512509 1 
23 1 43.1558 42.3348 -2.05651 6.26532 5 
24 1 42.2842 44.8505 -3.22834 0.23622 1 
25 1 43.7292 44.6801 -0.848773 9.72362 5 
26 1 45.0538 44.181 -3.29604 0.499762 1 
27 1 46.6357 44.397 -1.09938 8.48718 5 
28 1 45.7037 46.8328 -1.79229 5.485 5 
29 1 48.7085 45.9522 -1.89942 2.24669 5 
30 1 13.6686 47.6292 -0.688272 8.89461 5 
31 1 38.7163 42.5201 -9.5074 0.00393089 1 
32 1 40.2164 42.4536 -7.03481 0.012712 1 
33 1 39.3638 44.9671 -8.17848 0.00528962 1 
34 1 40.8545 44.9053 -5.71019 0.0295752 1 
35 1 42.1271 44.2626 -8.17083 0.00335083 1 
36 1 43.5976 44.2067 -5.7013 0.0295975 1 
37 1 42.7648 46.712 -6.81207 0.00848975 1 
38 1 44.2095 46.6746 -4.28744 0.133818 1 
39 1 45.5225 46.0236 -6.79755 0.0298451 1 
40 1 47.0143 45.9822 -4.27164 0.342647 1 
41 1 46.155 48.4534 -5.45759 0.0186348 1 
42 1 47.664 48.4614 -2.94296 0.812081 5 
43 1 48.9094 47.7882 -5.51068 0.059061 1 
44 1 50.488 47.8205 -3.12491 0.181477 1 
45 1 13.9278 49.5893 -4.29633 0.174206 1 
46 1 15.419 49.5949 -1.89288 6.76564 5 
48 1 40.6328 44.3205 -10.6357 0.0010448 1 
49 1 39.7761 46.8215 -11.7497 0.000542326 1 
50 1 41.2776 46.7655 -9.29193 0.00152179 1 
51 1 42.5502 46.1192 -11.7653 0.000641593 1 
52 1 44.0435 46.0671 -9.29567 0.00340773 1 
53 1 43.194 48.5632 -10.4253 0.00108705 1 
54 1 44.6826 48.5083 -7.9506 0.00320422 1 
55 1 45.9559 47.864 -10.4446 0.000819545 1 
56 1 47.4361 47.8167 -7.97811 0.00342725 1 
57 1 49.3561 49.6106 -9.15026 0.00193055 1 
58 1 50.847 49.5731 -6.72175 0.0143462 1 
67 1 47.8716 49.6601 -11.5954 0.000393796 1 
77 1 38.3422 35.9921 -1.2151 9.74614 5 
78 1 39.8831 35.6603 -3.71536 0.487496 1 
79 1 41.2991 35.7687 -1.43959 8.85467 5 
80 1 40.5148 38.2469 -2.17436 2.66919 5 
81 1 43.4604 37.3702 -2.22403 1.98434 5 
82 1 44.1645 39.8861 -0.942155 7.51987 5 
83 1 46.9191 39.1687 -0.914388 7.80776 5 
84 1 38.4978 35.7336 -6.16851 0.0346139 1 
85 1 39.099 38.1994 -4.70153 0.0932885 1 
86 1 40.4048 37.5448 -7.22109 0.0269009 1 
87 1 41.8641 37.4765 -4.68612 0.190867 1 
88 1 41.0262 39.9688 -5.83581 0.0269381 1 
89 1 42.4947 39.9066 -3.32678 0.392201 1 
90 1 43.7811 39.2847 -5.87496 0.0331237 1 
91 1 45.3177 39.264 -3.43025 0.0869517 1 
92 1 44.4598 41.7118 -4.52474 0.0832168 1 
93 1 45.9674 41.7728 -1.91841 6.3619 5 
94 1 47.1968 41.0406 -4.62656 0.0930318 1 
95 1 48.6927 40.943 -2.249 5.77987 5 
96 1 47.9033 43.4645 -3.34717 0.437548 1 
97 1 11.1615 43.1941 -1.10783 9.19234 5 
98 1 12.2838 42.7676 -3.51976 0.68823 1 
99 1 14.0215 43.0481 -1.24905 10.3517 5 
100 1 12.9551 45.3435 -2.19186 3.02821 5 
101 1 15.7819 44.6941 -2.40084 6.01812 5 
102 1 16.4072 47.2662 -1.05047 11.2685 5 
103 1 18.8657 46.1474 -0.826843 4.75757 5 
104 1 38.9237 37.5907 -9.72242 0.00509191 1 
105 1 39.5638 40.0255 -8.36329 0.00618035 1 
106 1 40.8372 39.3831 -10.8541 0.00162588 1 
107 1 42.3154 39.3339 -8.36756 0.00749854 1 
108 1 41.483 41.8207 -9.5069 0.00253931 1 
109 1 42.9698 41.7612 -7.02088 0.0108654 1 
110 1 44.2389 41.1263 -9.53323 0.00177742 1 
111 1 45.7178 41.0773 -7.07457 0.00681835 1 
112 1 44.8835 43.5721 -8.18521 0.00488143 1 
113 1 46.3685 43.5271 -5.73737 0.0413427 1 
114 1 47.6462 42.8731 -8.2397 0.00413947 1 
115 1 49.1423 42.8238 -5.83428 0.0328688 1 
116 1 48.2752 45.3342 -6.87102 0.0278383 1 
117 1 49.7931 45.3088 -4.48916 0.0901791 1 
118 1 12.6408 44.6179 -6.97955 0.00433414 1 
119 1 14.1555 44.5781 -4.60469 0.101296 1 
120 1 13.2771 47.091 -5.65538 0.0347068 1 
121 1 14.8045 47.1332 -3.31719 0.270039 1 
122 1 16.077 46.3621 -5.72885 0.0345873 1 
123 1 17.6446 46.4166 -3.35361 0.564105 1 
124 1 16.7569 48.8368 -4.3295 0.460759 1 
125 1 18.2751 49.1623 -1.54517 9.92047 5 
126 1 19.5089 48.1083 -4.38146 0.398581 1 
127 1 20.8839 48.0627 -1.79543 6.98568 5 
128 1 22.857 49.7754 -3.00731 6.77248 5 
131 1 39.9874 41.8774 -11.9735 0.000713597 1 
133 1 42.7544 41.1774 -11.9962 0.000455149 1 
135 1 43.3986 43.6215 -10.6503 0.000786605 1 
137 1 46.1609 42.9219 -10.6833 0.000764468 1 
138 1 45.3153 45.4185 -11.7899 0.000545734 1 
139 1 46.7982 45.3712 -9.32687 0.00349735 1 
140 1 48.0804 44.7149 -11.8283 0.000667337 1 
141 1 49.5644 44.6664 -9.38648 0.00355346 1 
142 1 48.7176 47.1624 -10.4858 0.00103299 1 
143 1 50.1982 47.1192 -8.04666 0.00857238 1 
144 1 13.0685 46.4545 -10.5408 0.00155066 1 
145 1 14.5664 46.4083 -8.12686 0.00429189 1 
146 1 13.7121 48.9037 -9.20593 0.00155913 1 
147 1 15.2193 48.8606 -6.76936 0.0285388 1 
148 1 16.4956 48.1868 -9.26061 0.00315159 1 
149 1 18.0054 48.1282 -6.8403 0.0255771 1 
150 1 19.9353 49.9103 -7.97679 0.00907176 1 
151 1 21.4383 49.8538 -5.52082 0.0264394 1 
167 1 50.641 48.9537 -11.6394 0.000341207 1 
169 1 14.9968 48.2422 -11.6875 0.000509808 1 
171 1 18.4242 49.9738 -10.4032 0.00167327 1 
208 1 38.1908 28.9293 -2.82808 0.178753 1 
209 1 39.6656 28.7235 -0.533374 5.77268 5 
210 1 38.8237 31.3435 -1.35301 6.20578 5 
211 1 41.6916 30.675 -1.23986 6.96855 5 
212 1 38.7035 30.7711 -6.36945 0.0187955 1 
213 1 40.1982 30.7299 -3.85418 0.17403 1 
214 1 39.3585 33.2046 -5.0148 0.122783 1 
215 1 40.733 33.1769 -2.35675 6.21932 5 
216 1 42.058 32.5217 -5.06496 0.0831574 1 
217 1 43.4734 32.411 -2.686 5.97539 5 
218 1 42.6842 34.949 -3.73253 0.361653 1 
219 1 44.251 34.6163 -1.45617 9.33536 5 
220 1 45.4737 34.2695 -3.90633 0.525342 1 
221 1 47.0892 34.4315 -1.68088 8.49449 5 
222 1 46.1671 36.829 -2.45621 2.45692 5 
223 1 9.67924 36.6734 -0.151553 6.12143 5 
224 1 10.5891 36.0547 -2.71338 0.947135 5 
225 1 12.2453 35.9068 -0.56742 8.72257 5 
226 1 11.2947 38.6084 -1.22825 6.44445 5 
227 1 13.9513 37.8082 -1.44905 6.56342 5 
228 1 39.1356 32.6342 -9.99073 0.00175847 1 
229 1 40.6161 32.5783 -7.52907 0.00559898 1 
230 1 39.7755 35.0902 -8.63258 0.00591826 1 
231 1 41.2417 35.0351 -6.16584 0.0359578 1 
232 1 42.5276 34.3871 -8.66302 0.00453071 1 
233 1 43.9933 34.328 -6.23979 0.0304777 1 
234 1 43.1476 36.847 -7.27063 0.0185818 1 
235 1 44.6188 36.7993 -4.83587 0.0782231 1 
236 1 45.9156 36.1381 -7.36281 0.00465126 1 
237 1 47.3949 36.0862 -4.9628 0.0955819 1 
238 1 46.553 38.5908 -5.9967 0.0122881 1 
239 1 48.0841 38.5507 -3.59469 0.100078 1 
240 1 10.9114 37.8902 -6.11068 0.027131 1 
241 1 12.4407 37.8784 -3.74166 0.192651 1 
242 1 11.5995 40.3354 -4.71943 0.193506 1 
243 1 13.1358 40.4888 -2.03343 6.916 5 
244 1 14.3549 39.6515 -4.72878 0.270109 1 
245 1 15.8505 39.6822 -2.21746 3.19087 5 
246 1 15.1032 42.0662 -3.49825 0.639044 1 
247 1 17.8098 41.317 -3.36225 1.28426 5 
248 1 18.3742 43.8561 -2.43685 10.4 5 
249 1 21.1195 43.0022 -2.05762 6.58445 5 
250 1 21.626 45.4592 -0.925558 4.74892 5 
251 1 24.5183 44.6801 -0.848773 9.72362 5 
252 1 38.283 35.1411 -11.0926 0.00127373 1 
254 1 41.0476 34.4384 -11.115 0.000981176 1 
256 1 41.681 36.8922 -9.74377 0.00399229 1 
258 1 44.4391 36.1884 -9.79178 0.00307685 1 
259 1 43.5964 38.6842 -10.8843 0.00170634 1 
260 1 45.0698 38.6372 -8.42608 0.00677437 1 
261 1 46.3617 37.9804 -10.936 0.00183929 1 
262 1 47.8442 37.9342 -8.50991 0.0051534 1 
263 1 47.0041 40.4269 -9.58234 0.00166787 1 
264 1 48.4932 40.3805 -7.13863 0.0139763 1 
265 1 11.3604 39.7175 -9.64151 0.00269323 1 
266 1 12.8665 39.6643 -7.21665 0.0209476 1 
267 1 12.0051 42.1607 -8.3077 0.00358328 1 
268 1 13.5352 42.1053 -5.906 0.0368301 1 
269 1 14.7992 41.4404 -8.35553 0.00680791 1 
270 1 16.3229 41.3752 -5.9149 0.0576863 1 
271 1 15.4298 43.8955 -7.06472 0.027032 1 
272 1 16.9478 43.8441 -4.73433 0.380042 1 
273 1 18.2405 43.1586 -7.07523 0.0391994 1 
274 1 19.756 43.07 -4.60723 0.297638 1 
275 1 18.8825 45.6122 -5.74974 0.0587142 1 
276 1 20.3351 45.6289 -3.31198 0.281961 1 
277 1 21.6437 44.9053 -5.71019 0.0295752 1 
278 1 23.0733 44.8505 -3.22834 0.23622 1 
279 1 22.2747 47.3627 -4.3044 0.131235 1 
280 1 23.6948 47.3482 -1.60839 3.83508 5 
281 1 24.9987 46.6746 -4.28744 0.133818 1 
282 1 26.4928 46.8328 -1.79229 5.485 5 
283 1 25.6105 49.1091 -2.93143 2.13524 5 
284 1 28.4532 48.4614 -2.94296 0.812081 5 
293 1 45.5195 40.4758 -12.0313 0.000454939 1 
295 1 48.2909 39.7691 -12.0775 0.00053787 1 
297 1 48.9309 42.2155 -10.7332 0.000717699 1 
299 1 13.2907 41.5016 -10.7839 0.000833529 1 
300 1 12.4319 44.0053 -11.8779 0.000741226 1 
301 1 13.9265 43.9499 -9.45701 0.00299229 1 
302 1 15.2149 43.2919 -11.9246 0.000646378 1 
303 1 16.7201 43.2306 -9.49836 0.00431506 1 
304 1 15.8554 45.7391 -10.5922 0.000939073 1 
305 1 17.3637 45.6801 -8.17036 0.00323612 1 
306 1 18.6434 45.0259 -10.6223 0.000856191 1 
307 1 20.1529 44.9671 -8.17848 0.00528962 1 
308 1 19.2895 47.4698 -9.28828 0.00314085 1 
309 1 20.7947 47.4147 -6.81968 0.0186206 1 
310 1 22.0667 46.7655 -9.29193 0.00152179 1 
311 1 23.5539 46.712 -6.81207 0.00848975 1 
312 1 22.7115 49.2061 -7.95962 0.0036385 1 
313 1 24.1884 49.1453 -5.46771 0.0143281 1 
314 1 25.4718 48.5083 -7.9506 0.00320422 1 
315 1 26.9441 48.4534 -5.45759 0.0186348 1 
337 1 17.7818 47.5294 -11.7258 0.000538405 1 
339 1 20.5652 46.8215 -11.7497 0.000542326 1 
341 1 21.2105 49.2653 -10.4192 0.00144446 1 
343 1 23.9832 48.5632 -10.4253 0.00108705 1 
442 1 38.4177 23.9795 -2.93143 2.13524 5 
443 1 39.0958 26.3003 -1.68743 6.32008 5 
444 1 40.4001 25.7572 -4.15871 0.0594734 1 
445 1 41.9708 25.7875 -1.74824 6.8851 5 
446 1 41.0263 28.2234 -2.85477 0.250644 1 
447 1 42.6783 28.0886 -0.510664 9.29985 5 
448 1 43.841 27.5749 -2.97049 0.469635 1 
449 1 7.12919 27.8357 -0.795136 8.28554 5 
450 1 44.4871 30.1917 -1.53793 5.62717 5 
451 1 9.04551 29.4219 -1.68828 6.23603 5 
452 1 38.9147 25.8195 -6.61394 0.00578748 1 
453 1 39.5329 28.2727 -5.27229 0.0207132 1 
454 1 40.8219 27.6262 -7.76658 0.00210356 1 
455 1 42.3045 27.5749 -5.33468 0.0254908 1 
456 1 41.4506 30.0749 -6.41691 0.00898239 1 
457 1 42.93 30.0229 -3.97011 0.166404 1 
458 1 44.2265 29.39 -6.46525 0.0116819 1 
459 1 45.7503 29.3716 -3.99999 0.216023 1 
460 1 44.8765 31.8193 -5.13191 0.092729 1 
461 1 46.3864 31.9115 -2.56074 6.38043 5 
462 1 9.21205 31.1603 -5.2042 0.10508 1 
463 1 10.7707 31.1952 -2.82717 6.53282 5 
464 1 9.9488 33.5798 -3.92625 0.804789 5 
465 1 12.1846 33.1897 -1.51545 9.72146 5 
466 1 12.7293 32.852 -4.10523 5.94577 5 
467 1 14.6556 34.4965 -0.69889 11.2198 5 
468 1 13.3575 35.3298 -2.93629 5.90102 5 
469 1 16.1578 34.5727 -2.82321 9.94479 5 
470 1 16.4853 36.9446 -1.39114 7.3175 5 
471 1 19.1314 35.9921 -1.2151 9.74614 5 
472 1 39.3411 27.6819 -10.2205 0.000600738 1 
473 1 38.4924 30.1844 -11.3341 0.000499978 1 
474 1 39.9771 30.13 -8.87402 0.00127772 1 
475 1 41.2568 29.4821 -11.3609 0.000352139 1 
476 1 42.7401 29.4318 -8.91181 0.00117518 1 
477 1 41.8955 31.9328 -10.0148 0.000843667 1 
478 1 43.3714 31.879 -7.55982 0.00714912 1 
479 1 44.6585 31.2291 -10.0611 0.00117011 1 
480 1 46.148 31.1816 -7.63843 0.00519426 1 
481 1 45.293 33.6804 -8.72047 0.0028292 1 
482 1 46.7976 33.628 -6.31101 0.0266336 1 
483 1 9.65227 32.9659 -8.79187 0.00409462 1 
484 1 11.161 32.9025 -6.40633 0.0418233 1 
485 1 10.2738 35.4257 -7.47096 0.0216506 1 
486 1 11.7858 35.3852 -5.15827 0.160656 1 
487 1 13.0904 34.6932 -7.54236 0.0228407 1 
488 1 14.6472 34.623 -5.19101 0.177435 1 
489 1 13.7272 37.1589 -6.18258 0.03108 1 
490 1 15.2337 37.1686 -3.82603 0.271666 1 
491 1 16.537 36.4438 -6.18777 0.0396304 1 
492 1 17.9893 36.3937 -3.7204 0.431972 1 
493 1 17.1587 38.9199 -4.72256 0.177157 1 
494 1 18.5615 38.7823 -2.08784 2.42142 5 
495 1 19.8882 38.1994 -4.70153 0.0932885 1 
496 1 21.304 38.2469 -2.17436 2.66919 5 
497 1 20.5052 40.6153 -3.23855 1.22853 5 
498 1 23.2838 39.9066 -3.32678 0.392201 1 
499 1 24.9537 39.8861 -0.942155 7.51987 5 
500 1 23.945 42.3348 -2.05651 6.26532 5 
501 1 26.7566 41.7728 -1.91841 6.3619 5 
502 1 27.4249 44.397 -1.09938 8.48718 5 
503 1 30.3723 43.1941 -1.10783 9.19234 5 
511 1 43.8104 33.7334 -11.1537 0.000790866 1 
513 1 46.5809 33.023 -11.2066 0.000767846 1 
515 1 47.2108 35.4777 -9.86336 0.00266764 1 
517 1 11.5774 34.7608 -9.92915 0.00349824 1 
518 1 10.7195 37.2696 -10.9948 0.00112751 1 
519 1 12.216 37.2152 -8.57821 0.00377497 1 
520 1 13.5076 36.5564 -11.0428 0.000960746 1 
521 1 15.0179 36.5013 -8.61886 0.0054051 1 
522 1 14.1529 39.0027 -9.68606 0.00417456 1 
523 1 15.6554 38.9508 -7.21824 0.0405432 1 
524 1 16.9364 38.2944 -9.70886 0.00451583 1 
525 1 18.4348 38.243 -7.23664 0.0226052 1 
526 1 17.5839 40.7253 -8.36753 0.00726359 1 
527 1 19.0808 40.6613 -5.86924 0.0436291 1 
528 1 20.3529 40.0255 -8.36329 0.00618035 1 
529 1 21.8153 39.9688 -5.83581 0.0269381 1 
530 1 21.0056 42.4536 -7.03481 0.012712 1 
531 1 22.4816 42.3845 -4.53522 0.0512509 1 
532 1 23.759 41.7612 -7.02088 0.0108654 1 
533 1 25.2489 41.7118 -4.52474 0.0832168 1 
534 1 24.3868 44.2067 -5.7013 0.0295975 1 
535 1 25.8429 44.181 -3.29604 0.499762 1 
536 1 27.1576 43.5271 -5.73737 0.0413427 1 
537 1 28.6925 43.4645 -3.34717 0.437548 1 
538 1 27.8035 45.9822 -4.27164 0.342647 1 
539 1 29.4977 45.9522 -1.89942 2.24669 5 
540 1 30.5822 45.3088 -4.48916 0.0901791 1 
541 1 32.1659 45.3435 -2.19186 3.02821 5 
542 1 31.2772 47.8205 -3.12491 0.181477 1 
543 1 32.8794 47.6292 -0.688272 8.89461 5 
544 1 34.0153 47.1332 -3.31719 0.270039 1 
545 1 35.6181 47.2662 -1.05047 11.2685 5 
546 1 34.6299 49.5949 -1.89288 6.76564 5 
547 1 37.4859 49.1623 -1.54517 9.92047 5 
563 1 12.6498 39.0582 -12.1233 0.000620246 1 
565 1 15.434 38.3479 -12.1604 0.000743599 1 
567 1 16.0771 40.789 -10.8195 0.00115799 1 
569 1 18.8572 40.0824 -10.8385 0.00124823 1 
570 1 17.9996 42.5815 -11.9549 0.000714354 1 
571 1 19.5054 42.5201 -9.5074 0.00393089 1 
572 1 20.7766 41.8774 -11.9735 0.000713597 1 
573 1 22.2722 41.8207 -9.5069 0.00253931 1 
574 1 21.422 44.3205 -10.6357 0.0010448 1 
575 1 22.9162 44.2626 -8.17083 0.00335083 1 
576 1 24.1878 43.6215 -10.6503 0.000786605 1 