ITEM: TIMESTEP
0
ITEM: NUMBER OF ATOMS
14874
ITEM: BOX BOUNDS xy xz yz pp pp ss
-111.054425717 216.968142823 -111.054425717
0 38.442418352 0
-88.21923257861273 90.96393650709602 0
ITEM: ATOMS id type x y z c_csym c_cna 
14 1 0.956045 36.7794 -12.3229 0.000554958 1 
15 1 0.193139 34.2024 -9.32948 0.00160186 1 
16 1 1.06072 36.9118 -9.45385 0.00124456 1 
17 1 1.16266 37.0561 -6.57722 0.00341669 1 
18 1 0.287206 34.3561 -6.45845 0.00339768 1 
19 1 0.370319 34.5289 -3.58106 0.0169778 1 
43979 1 -3.66733 1.45413 -0.6359 10.0955 5 
197 1 0.392737 21.7748 -14.5961 0.000379001 1 
215 1 2.11746 27.2369 -14.8742 0.000320439 1 
216 1 1.25717 24.5059 -14.7362 0.000338279 1 
217 1 1.37562 24.6238 -11.8836 0.00084164 1 
218 1 0.51805 21.8894 -11.7447 0.000942015 1 
219 1 0.64639 22.0053 -8.8886 0.00247166 1 
232 1 1.53465 32.0146 -13.6056 0.000431711 1 
233 1 0.67607 29.2852 -13.4766 0.000604703 1 
234 1 3.08319 30.0914 -12.1549 0.000850631 1 
235 1 2.22858 27.3588 -12.0203 0.000879736 1 
236 1 0.78503 29.4145 -10.628 0.00203962 1 
237 1 2.32781 27.4854 -9.16387 0.00294882 1 
238 1 1.4874 24.7441 -9.02777 0.00256981 1 
239 1 1.57484 24.8723 -6.17337 0.0308807 1 
240 1 0.776979 22.1177 -6.02661 0.0139536 1 
241 1 0.887442 22.2291 -3.13964 8.56309 5 
247 1 2.39866 34.7366 -13.7376 0.000330656 1 
248 1 4.8144 35.5353 -12.4259 0.000442755 1 
249 1 3.94453 32.8176 -12.2883 0.00056848 1 
250 1 2.50263 34.8663 -10.8739 0.00085983 1 
251 1 1.63867 32.1466 -10.7489 0.00115833 1 
252 1 4.0403 32.9506 -9.4246 0.00137021 1 
253 1 3.178 30.2235 -9.29613 0.00237817 1 
254 1 1.73203 32.29 -7.88866 0.00260876 1 
255 1 0.881555 29.5558 -7.77817 0.0078031 1 
256 1 3.2518 30.3655 -6.43288 0.00638353 1 
257 1 2.39014 27.6209 -6.30801 0.0162317 1 
258 1 0.9548 29.7197 -4.91725 0.0463629 1 
259 1 0.0761023 26.9332 -4.77388 0.13303 1 
260 1 2.37203 27.7876 -3.47702 0.123456 1 
261 1 1.52898 24.992 -3.29072 1.4786 5 
262 1 -0.0872117 27.2252 -1.88318 3.70139 5 
263 1 1.32498 25.4072 -0.589357 12.9342 5 
267 1 4.91535 35.6631 -9.55798 0.0010329 1 
269 1 2.6008 35.0056 -8.00173 0.00199378 1 
270 1 5.0122 35.7992 -6.68197 0.00291009 1 
271 1 4.1259 33.0946 -6.55465 0.00342604 1 
272 1 2.69413 35.1597 -5.11685 0.00778519 1 
273 1 1.81304 32.4495 -5.02942 0.0119583 1 
274 1 4.19754 33.2459 -3.68063 0.0102308 1 
275 1 3.28644 30.5146 -3.55814 0.0267717 1 
276 1 1.85607 32.587 -2.18868 0.133219 1 
277 1 0.957787 29.9139 -1.98679 0.384917 1 
281 1 2.78045 35.3198 -2.23644 0.0824031 1 
637 1 0.741961 9.64077 -14.1154 0.000139523 1 
673 1 2.50043 15.0877 -14.4042 0.000193013 1 
674 1 1.62232 12.3637 -14.26 0.00011874 1 
675 1 0.194604 14.3968 -12.8497 0.000312941 1 
676 1 1.74249 12.4778 -11.4055 0.000451064 1 
677 1 0.85798 9.75684 -11.2662 0.000444375 1 
678 1 0.978467 9.87696 -8.41975 0.00198926 1 
679 1 0.203212 7.2782 -5.42865 0.0242373 1 
708 1 4.24506 20.5433 -14.6765 0.000353589 1 
709 1 3.37538 17.8152 -14.544 0.000301613 1 
710 1 1.94606 19.8519 -13.1411 0.000582055 1 
711 1 1.07293 17.1218 -13 0.000456155 1 
712 1 3.49581 17.9296 -11.6919 0.000940158 1 
713 1 2.62123 15.199 -11.552 0.000621444 1 
714 1 1.20031 17.2319 -10.1478 0.00161001 1 
715 1 0.321171 14.5077 -9.98758 0.00194087 1 
716 1 2.74584 15.3044 -8.69803 0.00406744 1 
717 1 1.86998 12.5922 -8.54333 0.00280546 1 
718 1 0.459626 14.6158 -7.10597 0.0152411 1 
719 1 2.00943 12.7049 -5.66413 0.0146556 1 
720 1 1.10408 10.0062 -5.57196 0.0188729 1 
721 1 1.24403 10.1364 -2.71004 0.338416 1 
722 1 0.320671 7.43178 -2.57603 3.06483 5 
743 1 5.96801 25.9959 -14.9507 0.000295298 1 
744 1 5.10847 23.2696 -14.8101 0.000328236 1 
745 1 3.66981 25.3114 -13.4129 0.000484278 1 
746 1 2.81131 22.582 -13.2756 0.000529598 1 
747 1 5.21968 23.3875 -11.9426 0.000905388 1 
748 1 4.36263 20.6612 -11.815 0.0011845 1 
749 1 2.92855 22.7002 -10.4117 0.0016639 1 
750 1 2.07111 19.9669 -10.2858 0.00178846 1 
751 1 4.4779 20.7817 -8.9449 0.00529984 1 
752 1 3.61814 18.0422 -8.84042 0.00406933 1 
753 1 2.20345 20.0796 -7.42567 0.00589099 1 
754 1 1.33977 17.3377 -7.29772 0.00895998 1 
755 1 3.75333 18.1484 -5.98249 0.024513 1 
756 1 2.88443 15.3975 -5.8379 0.0275788 1 
757 1 1.49209 17.4169 -4.47172 0.146958 1 
758 1 0.617843 14.7333 -4.19801 0.306017 1 
759 1 3.0343 15.4389 -2.90124 0.777755 1 
760 1 2.14064 12.8297 -2.75123 6.47342 5 
761 1 0.850335 14.7347 -0.826369 9.73155 5 
774 1 5.38651 30.7687 -13.6947 0.000397994 1 
775 1 4.52624 28.0409 -13.5533 0.00048577 1 
776 1 6.92684 28.8428 -12.234 0.000788465 1 
777 1 6.07151 26.1148 -12.0849 0.000758929 1 
778 1 4.62455 28.1646 -10.6911 0.00138663 1 
779 1 3.77647 25.4319 -10.5491 0.00129612 1 
780 1 6.16122 26.2367 -9.21312 0.00199333 1 
781 1 5.32214 23.507 -9.06507 0.00243878 1 
782 1 3.86546 25.5551 -7.67764 0.00849336 1 
783 1 3.04002 22.8196 -7.53349 0.00930537 1 
784 1 5.40626 23.624 -6.17366 0.0211529 1 
785 1 4.59185 20.9023 -6.05321 0.026663 1 
786 1 3.11148 22.9527 -4.64258 0.144688 1 
787 1 2.3448 20.1916 -4.56597 0.0415318 1 
788 1 4.68407 21.02 -3.14036 6.99747 5 
789 1 3.95845 18.2285 -3.13318 6.0138 5 
790 1 2.55811 20.2757 -1.65107 14.851 5 
791 1 1.70319 17.4768 -1.76517 9.16366 5 
792 1 3.49947 15.9985 -0.0719209 4.57676 5 
798 1 6.25379 33.4921 -13.8353 0.000269085 1 
799 1 8.6675 34.2903 -12.5246 0.000359631 1 
800 1 7.79201 31.5697 -12.3814 0.000541243 1 
801 1 6.35219 33.6175 -10.9723 0.000728135 1 
802 1 5.48226 30.8947 -10.8342 0.00107637 1 
803 1 7.87767 31.6973 -9.52045 0.00161203 1 
804 1 7.00998 28.967 -9.36962 0.00258979 1 
805 1 5.56218 31.0278 -7.97148 0.00275499 1 
806 1 4.70158 28.2941 -7.82328 0.00466621 1 
807 1 7.06662 29.0966 -6.50369 0.00910025 1 
808 1 6.21991 26.3626 -6.34063 0.00903758 1 
809 1 4.73524 28.4345 -4.94658 0.0207108 1 
810 1 3.88231 25.6871 -4.80047 0.0390027 1 
811 1 6.23459 26.5161 -3.51123 0.11358 1 
812 1 5.3877 23.7409 -3.29733 0.274671 1 
813 1 3.81754 25.9013 -1.98154 3.11792 5 
814 1 2.93824 23.1299 -1.5428 7.57788 5 
815 1 5.28858 24.1145 -0.592117 11.5759 5 
819 1 8.7622 34.4151 -9.65991 0.00112552 1 
821 1 6.44097 33.7506 -8.10204 0.00204503 1 
89661 3 -70.7062 24.6314 -0.493282 10.3632 5 
823 1 7.94437 31.8357 -6.65707 0.00459438 1 
824 1 6.52099 33.895 -5.21644 0.0097431 1 
825 1 5.61912 31.1678 -5.10946 0.00941637 1 
826 1 7.99143 31.9843 -3.78861 0.0166651 1 
827 1 7.08796 29.23 -3.63632 0.0901215 1 
828 1 5.64336 31.2869 -2.26973 0.132651 1 
829 1 4.71808 28.5878 -2.05492 0.354384 1 
835 1 6.59916 34.0328 -2.33063 0.0986371 1 
1359 1 2.84823 2.96418 -13.9235 0.000229272 1 
1360 1 1.97603 0.250245 -13.771 0.000370311 1 
1361 1 0.533292 2.28531 -12.3561 0.000639775 1 
1362 1 2.08312 0.375809 -10.9038 0.00124581 1 
1409 1 4.60403 8.40575 -14.2296 0.000188068 1 
1410 1 3.72493 5.68283 -14.0804 0.000239261 1 
1411 1 2.28883 7.71972 -12.676 0.000378745 1 
1412 1 1.40843 4.99903 -12.5185 0.000394982 1 
1413 1 3.83699 5.79736 -11.2367 0.00095572 1 
1414 1 2.95681 3.08161 -11.0667 0.000912124 1 
1415 1 1.51759 5.11576 -9.66845 0.002082 1 
1416 1 0.640141 2.40926 -9.48462 0.00289163 1 
1417 1 3.06661 3.20089 -8.20723 0.00485511 1 
1418 1 2.18918 0.510406 -8.02515 0.00401216 1 
1419 1 0.74815 2.54326 -6.59527 0.018789 1 
1420 1 2.2949 0.657787 -5.13043 0.0272029 1 
1459 1 6.35879 13.8561 -14.506 0.000234499 1 
1460 1 5.4826 11.1303 -14.3704 0.000161631 1 
1461 1 4.05008 13.1661 -12.9599 0.000260442 1 
1462 1 3.17051 10.4429 -12.8209 0.000205505 1 
1463 1 5.60102 11.2433 -11.5253 0.000451589 1 
1464 1 4.72013 8.52009 -11.387 0.000419193 1 
1465 1 3.29011 10.5581 -9.97335 0.00062778 1 
1466 1 2.40371 7.83657 -9.83514 0.00178117 1 
1467 1 4.84151 8.63569 -8.5474 0.00159079 1 
1468 1 3.9532 5.91329 -8.40446 0.00480784 1 
1469 1 2.52433 7.95856 -7.0106 0.0143126 1 
1470 1 1.6312 5.23811 -6.83173 0.0164538 1 
1471 1 4.08841 6.03476 -5.59464 0.0277734 1 
1472 1 3.1928 3.32973 -5.34373 0.0289876 1 
1473 1 1.77498 5.36879 -4.0427 0.235183 1 
1474 1 0.903185 2.7122 -3.70277 0.150392 1 
1475 1 3.35642 3.47834 -2.39219 1.44467 1 
1476 1 2.46367 0.883025 -2.2159 7.32694 5 
1477 1 1.11538 3.00446 -0.553521 9.92212 5 
1478 1 0.131016 0.160986 -0.827709 10.7551 5 
1509 1 8.09747 19.3104 -14.7566 0.000423502 1 
1510 1 7.2311 16.5839 -14.6354 0.00038113 1 
1511 1 5.79635 18.6224 -13.2256 0.000730849 1 
1512 1 4.92572 15.8926 -13.0993 0.000489113 1 
1513 1 7.34944 16.6992 -11.7864 0.00233072 1 
1514 1 6.47794 13.968 -11.6589 0.000715293 1 
1515 1 5.04444 16.0034 -10.255 0.00269908 1 
1516 1 4.17179 13.2774 -10.1047 0.00207004 1 
1517 1 6.60138 14.0733 -8.8134 0.00457585 1 
1518 1 5.72411 11.354 -8.68335 0.00260218 1 
1519 1 4.30361 13.3842 -7.23139 0.0237869 1 
1520 1 3.4168 10.6733 -7.12448 0.00302446 1 
1521 1 5.85903 11.4583 -5.85238 0.0240078 1 
1522 1 4.9758 8.75587 -5.69622 0.0372304 1 
1523 1 3.54544 10.7848 -4.27455 0.0436729 1 
1524 1 2.65524 8.08703 -4.23024 0.172072 1 
1525 1 5.16743 8.92221 -2.78861 0.876562 1 
1526 1 4.2615 6.19736 -2.81473 4.04485 5 
1527 1 2.86973 8.29279 -1.51842 11.4435 5 
1528 1 2.01854 5.64003 -1.35977 10.0078 5 
1552 1 8.95793 22.033 -14.8855 0.000472021 1 
1553 1 7.51574 24.0718 -13.482 0.000571811 1 
1554 1 6.65928 21.3482 -13.3457 0.00078993 1 
1555 1 9.06315 22.1503 -12.0084 0.00134642 1 
1556 1 8.2112 19.4288 -11.8874 0.00173698 1 
1557 1 6.76906 21.4664 -10.4678 0.00330753 1 
1558 1 5.9121 18.7407 -10.3704 0.00426877 1 
1559 1 8.32183 19.5449 -9.00595 0.00989931 1 
1560 1 7.46932 16.8099 -8.95885 0.0274802 1 
1561 1 6.01931 18.8606 -7.52004 0.0312271 1 
1562 1 5.16057 16.1042 -7.42561 0.0279498 1 
1563 1 7.58026 16.9068 -6.20027 0.320833 1 
1564 1 6.74445 14.1667 -5.96057 0.0500514 1 
1565 1 5.2733 16.1693 -4.61853 0.254633 1 
1566 1 4.44915 13.4891 -4.32045 0.262247 1 
1567 1 6.90525 14.1976 -3.05586 0.620666 1 
1568 1 6.00597 11.5513 -3.06642 0.647321 1 
1569 1 4.47417 13.5555 -1.14803 9.04066 5 
1570 1 3.62296 10.9049 -1.41515 6.80391 5 
1571 1 6.13918 11.3689 -0.433697 9.68748 5 
1588 1 9.23437 29.5227 -13.7835 0.000397548 1 
1589 1 8.37212 26.7965 -13.6304 0.000518067 1 
1590 1 10.771 27.5958 -12.3193 0.000776731 1 
1591 1 9.9138 24.8714 -12.1563 0.00103387 1 
1592 1 8.46257 26.9157 -10.7601 0.00175734 1 
1593 1 7.61456 24.1898 -10.6049 0.00144553 1 
1594 1 9.99634 24.99 -9.27485 0.00302493 1 
1595 1 9.15791 22.2674 -9.1184 0.00339666 1 
1596 1 7.69626 24.3102 -7.71671 0.00376403 1 
1597 1 6.86903 21.5839 -7.57098 0.0162952 1 
1598 1 9.23008 22.3857 -6.21554 0.0113778 1 
1599 1 8.42006 19.6473 -6.10834 0.0844655 1 
1600 1 6.96642 21.6768 -4.63928 0.168703 1 
1601 1 6.13865 18.9792 -4.66577 0.240014 1 
1602 1 8.55456 19.6235 -3.12185 5.13744 5 
1603 1 7.68569 16.9409 -3.54739 6.04372 5 
1604 1 6.3082 18.9887 -1.72916 11.5514 5 
1605 1 5.52554 16.1707 -1.87379 5.92825 5 
1606 1 7.26603 14.3275 -0.144339 10.4057 5 
1616 1 10.1053 32.2476 -13.9312 0.000247395 1 
1617 1 12.519 33.0469 -12.6229 0.000332754 1 
1618 1 11.6398 30.3231 -12.4773 0.000640468 1 
1619 1 10.1983 32.3702 -11.0726 0.000796343 1 
1620 1 9.32256 29.6442 -10.9244 0.00138235 1 
1621 1 11.7215 30.4477 -9.62651 0.00272112 1 
1622 1 10.8484 27.7158 -9.45859 0.00267836 1 
1623 1 9.39095 29.7724 -8.07012 0.00618923 1 
1624 1 8.53283 27.0392 -7.87952 0.00870158 1 
1625 1 10.9068 27.8452 -6.60871 0.0115354 1 
1626 1 10.0547 25.1167 -6.38334 0.0116549 1 
1627 1 8.57526 27.1779 -4.98036 0.0813657 1 
1628 1 7.7396 24.43 -4.82098 0.0448392 1 
1629 1 10.0934 25.2953 -3.4988 0.123291 1 
1630 1 9.24975 22.4773 -3.30654 0.353163 1 
1631 1 7.74711 24.6795 -1.99503 4.18976 5 
1632 1 6.874 21.8299 -1.60903 6.81899 5 
1633 1 9.20046 22.9089 -0.59354 11.0124 5 
1640 1 12.6107 33.1704 -9.76352 0.00114109 1 
1642 1 10.2774 32.5016 -8.21326 0.00324454 1 
1644 1 11.7868 30.5844 -6.79489 0.0189876 1 
1645 1 10.3355 32.652 -5.34954 0.0212815 1 
1646 1 9.42957 29.9123 -5.22995 0.0361277 1 
1647 1 11.8272 30.7313 -4.0198 0.197322 1 
1648 1 10.9533 27.998 -3.78965 0.135939 1 
1649 1 9.42431 30.0746 -2.4115 0.441695 1 
1650 1 8.60638 27.381 -1.99798 1.48395 5 
1658 1 10.3961 32.82 -2.48238 0.298959 1 
1660 1 11.938 30.949 -1.33503 6.77817 5 
2214 1 6.71353 1.72463 -14.0322 0.000234701 1 
2215 1 4.39793 1.04716 -12.4703 0.00060349 1 
2265 1 8.47072 7.16748 -14.336 0.000265762 1 
2266 1 7.5917 4.44375 -14.1884 0.000276114 1 
2267 1 6.15501 6.48131 -12.7907 0.00046551 1 
2268 1 5.27467 3.76044 -12.634 0.000482621 1 
2269 1 7.70683 4.55441 -11.3478 0.000925203 1 
2270 1 6.82378 1.8387 -11.1782 0.00096946 1 
2271 1 5.3869 3.87346 -9.79071 0.00245166 1 
2272 1 4.50581 1.16876 -9.60267 0.00300606 1 
2273 1 6.93486 1.95151 -8.32147 0.00480857 1 
2274 1 4.61621 1.29782 -6.71678 0.0195337 1 
2315 1 10.2213 12.6218 -14.6021 0.000330577 1 
2316 1 9.34782 9.89376 -14.4735 0.000271125 1 
2317 1 7.91239 11.9316 -13.0681 0.00034061 1 
2318 1 7.03506 9.20559 -12.934 0.000316577 1 
2319 1 9.4691 10.0032 -11.6347 0.000623273 1 
2320 1 8.59003 7.27743 -11.4984 0.00051723 1 
2321 1 7.1557 9.31586 -10.0973 0.000755465 1 
2322 1 6.27274 6.59377 -9.95695 0.00188063 1 
2323 1 8.71504 7.38341 -8.66669 0.000878094 1 
2324 1 7.82605 4.66245 -8.51757 0.00343659 1 
2325 1 6.40037 6.70737 -7.14015 0.0131487 1 
2326 1 5.50647 3.98804 -6.96172 0.0151893 1 
2327 1 7.95318 4.76607 -5.69992 0.0168556 1 
2328 1 7.05312 2.06863 -5.45616 0.0312997 1 
2329 1 5.63793 4.09503 -4.16214 0.19493 1 
2330 1 4.75292 1.46196 -3.81217 0.184304 1 
2331 1 7.17749 2.18033 -2.48382 1.38619 1 
2332 1 4.90716 1.67992 -0.588395 9.98093 5 
2365 1 11.9514 18.0756 -14.8385 0.000420945 1 
2366 1 11.0894 15.3504 -14.7221 0.000331788 1 
2367 1 9.65108 17.3898 -13.3081 0.000615981 1 
2368 1 8.78524 14.6602 -13.1942 0.000651213 1 
2369 1 11.2083 15.4659 -11.8677 0.00106327 1 
2370 1 10.343 12.7326 -11.7588 0.000945056 1 
2371 1 8.90745 14.7696 -10.3521 0.00323585 1 
2372 1 8.03447 12.0402 -10.228 0.000781761 1 
2373 1 10.4699 12.8341 -8.92443 0.00296035 1 
2374 1 9.59528 10.105 -8.80424 0.00188996 1 
2375 1 8.16503 12.1392 -7.39268 0.00280309 1 
2376 1 7.28374 9.41953 -7.26672 0.00314635 1 
2377 1 9.73163 10.189 -5.98613 0.0144874 1 
2378 1 8.85078 7.48251 -5.82649 0.0181568 1 
2379 1 7.42635 9.50987 -4.43867 0.053818 1 
2380 1 6.54175 6.82734 -4.35731 0.126169 1 
2381 1 9.01169 7.55383 -2.94413 0.498162 1 
2382 1 8.0936 4.87997 -2.90438 4.07834 5 
2383 1 6.70044 6.95687 -1.59377 11.149 5 
2384 1 5.81171 4.32227 -1.45715 7.95986 5 
2409 1 12.809 20.7957 -14.9654 0.000628644 1 
2410 1 11.3628 22.8324 -13.5572 0.00084905 1 
2411 1 10.5086 20.1132 -13.4211 0.00111386 1 
2412 1 12.9109 20.9126 -12.0837 0.00183564 1 
2413 1 12.063 18.1941 -11.9666 0.00125871 1 
2414 1 10.6128 20.232 -10.5358 0.00447148 1 
2415 1 9.76885 17.5074 -10.4465 0.00317616 1 
2416 1 12.1707 18.3132 -9.08748 0.00409266 1 
2417 1 11.3298 15.5778 -9.01849 0.00424261 1 
2418 1 9.89292 17.6199 -7.57883 0.0275787 1 
2419 1 9.03975 14.8651 -7.52339 0.0240615 1 
2420 1 11.4577 15.6732 -6.17839 0.0154053 1 
2421 1 10.6071 12.9144 -6.10041 0.0157649 1 
2422 1 9.18782 14.9312 -4.70908 0.202113 1 
2423 1 8.32199 12.2137 -4.55642 0.0275626 1 
2424 1 10.7791 12.9069 -3.2859 0.182966 1 
2425 1 9.88051 10.2082 -3.19876 0.168121 1 
2426 1 8.49092 12.2327 -1.70904 6.15317 5 
2427 1 7.62112 9.48136 -1.55364 0.747141 1 
2428 1 10.0074 10.1881 -0.513476 9.93553 5 
2445 1 13.0841 28.2779 -13.8747 0.000421102 1 
2446 1 12.2197 25.5529 -13.7137 0.000521683 1 
2447 1 14.6214 26.3499 -12.409 0.000866914 1 
2448 1 13.7617 23.6285 -12.236 0.00131826 1 
2449 1 12.3062 25.6684 -10.8441 0.00161582 1 
2450 1 11.4561 22.9492 -10.6729 0.00235501 1 
2451 1 13.8421 23.7443 -9.35148 0.00440302 1 
2452 1 13.001 21.0312 -9.18918 0.00506331 1 
2453 1 11.5319 23.0692 -7.77438 0.00647594 1 
2454 1 10.7044 20.3497 -7.62873 0.021403 1 
2455 1 13.0684 21.1537 -6.27989 0.016828 1 
2456 1 12.2719 18.4259 -6.20159 0.0145515 1 
2457 1 10.756 20.4627 -4.70264 0.166672 1 
2458 1 10.0261 17.7046 -4.70082 1.01333 5 
2459 1 12.36 18.5309 -3.33154 5.54072 5 
2460 1 11.6266 15.7342 -3.35348 5.61676 5 
2461 1 10.8813 17.5785 -1.32786 14.6874 5 
2462 1 9.48285 14.8114 -1.94789 8.20262 5 
2463 1 11.0483 12.9619 -0.187207 11.8182 5 
2473 1 13.9572 31.0042 -14.0276 0.000278526 1 
2474 1 16.3721 31.8043 -12.7231 0.000355124 1 
2475 1 15.4924 29.0775 -12.5737 0.00069308 1 
2476 1 14.049 31.1245 -11.1746 0.00087769 1 
2477 1 13.1704 28.3957 -11.0202 0.00146975 1 
2478 1 15.5766 29.1987 -9.73027 0.00284444 1 
2479 1 14.7 26.4655 -9.55429 0.00376142 1 
2480 1 13.2415 28.5208 -8.17755 0.00549325 1 
2481 1 12.3744 25.7874 -7.97201 0.0063933 1 
2482 1 14.7644 26.5912 -6.72154 0.0231634 1 
2483 1 13.9007 23.8694 -6.45252 0.0200015 1 
2484 1 12.424 25.9267 -5.09706 0.0392638 1 
2485 1 11.5709 23.2028 -4.86097 0.0494511 1 
2486 1 13.9557 24.0512 -3.56125 0.131666 1 
2487 1 13.0657 21.2816 -3.37155 0.255152 1 
2488 1 11.6173 23.4826 -1.99554 5.39032 5 
2489 1 10.6715 20.5251 -1.58808 8.1856 5 
2490 1 13.0183 21.5903 -0.654274 12.4184 5 
2500 1 14.1305 31.2542 -8.32666 0.00325237 1 
2502 1 15.6514 29.333 -6.90953 0.0179478 1 
2503 1 14.2 31.4026 -5.48002 0.0195368 1 
2504 1 13.3004 28.665 -5.35392 0.0258915 1 
2505 1 15.7263 29.4879 -4.1374 0.166026 1 
2506 1 14.8312 26.7436 -3.94621 0.26086 1 
2507 1 13.3544 28.8631 -2.5374 3.16462 5 
2508 1 12.5248 26.1531 -2.19034 1.53731 5 
2518 1 14.2754 31.5664 -2.62354 0.315243 1 
2520 1 15.8579 29.711 -1.41856 11.1013 5 
3058 1 10.5768 0.483627 -14.1317 0.000224087 1 
3109 1 12.3373 5.92852 -14.4303 0.00030828 1 
3110 1 11.4576 3.20379 -14.2853 0.000280026 1 
3111 1 10.0242 5.23988 -12.8925 0.000490115 1 
3112 1 9.14185 2.51851 -12.7376 0.000493044 1 
3113 1 11.5752 3.3111 -11.442 0.00082447 1 
3114 1 10.6876 0.594699 -11.2768 0.00090557 1 
3115 1 9.25588 2.62642 -9.89402 0.00219233 1 
3116 1 10.7978 0.702582 -8.41814 0.00433376 1 
3117 1 8.47634 0.0431313 -6.82066 0.0192509 1 
3160 1 14.0833 11.3862 -14.6886 0.000352592 1 
3161 1 13.2131 8.65645 -14.5647 0.000360299 1 
3162 1 11.7787 10.6945 -13.1633 0.000543216 1 
3163 1 10.9039 7.9656 -13.0341 0.000474884 1 
3164 1 13.3379 8.76344 -11.7232 0.000892631 1 
3165 1 12.46 6.03485 -11.5897 0.00057182 1 
3166 1 11.0285 8.06967 -10.2002 0.00118255 1 
3167 1 10.1451 5.34592 -10.0585 0.00148641 1 
3168 1 12.5864 6.13351 -8.75243 0.000980019 1 
3169 1 11.6952 3.41289 -8.60571 0.00283083 1 
3170 1 10.2706 5.446 -7.23688 0.00873576 1 
3171 1 9.37222 2.73152 -7.06056 0.0132539 1 
3172 1 11.8158 3.50257 -5.77857 0.0139157 1 
3173 1 10.9077 0.809223 -5.55002 0.0323083 1 
3174 1 9.48484 2.81394 -4.24784 0.174408 1 
3175 1 8.59328 0.191466 -3.90381 0.21168 1 
3176 1 11.0075 0.885783 -2.57048 1.32573 1 
3177 1 8.71471 0.356525 -0.631071 9.81228 5 
3212 1 15.8057 16.8393 -14.9193 0.000536825 1 
3213 1 14.9472 14.1152 -14.8042 0.000330371 1 
3214 1 13.5072 16.1546 -13.3879 0.000611594 1 
3215 1 12.6468 13.4257 -13.2802 0.000594511 1 
3216 1 15.0658 14.2306 -11.9425 0.000915986 1 
3217 1 14.2068 11.4966 -11.8404 0.000936259 1 
3218 1 12.7696 13.5361 -10.4339 0.00216062 1 
3219 1 11.9041 10.7994 -10.3261 0.00133063 1 
3220 1 14.3331 11.5978 -8.99951 0.00254929 1 
3221 1 13.4664 8.86053 -8.88966 0.00255947 1 
3222 1 12.0346 10.8896 -7.49735 0.00350466 1 
3223 1 11.1577 8.1603 -7.37413 0.00507945 1 
3224 1 13.5961 8.93764 -6.0678 0.016738 1 
3225 1 12.7149 6.2185 -5.90243 0.0205103 1 
3226 1 11.2909 8.22063 -4.54742 0.0433749 1 
3227 1 10.399 5.5349 -4.44169 0.0838792 1 
3228 1 12.8363 6.27979 -3.00077 0.621358 1 
3229 1 11.9314 3.59585 -2.97852 4.37294 5 
3230 1 10.5288 5.63861 -1.64384 10.9328 5 
3231 1 9.62773 2.99472 -1.5345 7.99541 5 
3260 1 15.2139 21.5927 -13.6382 0.00104948 1 
3261 1 14.3611 18.8763 -13.5011 0.00103442 1 
3262 1 16.7631 19.6735 -12.1638 0.00163267 1 
3263 1 15.916 16.957 -12.0406 0.00164963 1 
3264 1 14.4638 18.9946 -10.6146 0.00309562 1 
3265 1 13.6223 16.2717 -10.5203 0.00184522 1 
3266 1 16.0203 17.0755 -9.14999 0.00610831 1 
3267 1 15.1845 14.3431 -9.08081 0.00311986 1 
3268 1 13.7365 16.3847 -7.65015 0.00604773 1 
3269 1 12.8964 13.635 -7.6017 0.0120108 1 
3270 1 15.3001 14.4459 -6.21465 0.0164654 1 
3271 1 14.4573 11.6787 -6.16649 0.0081188 1 
3272 1 13.0291 13.7095 -4.80319 0.109668 1 
3273 1 12.1777 10.9432 -4.66957 0.0159639 1 
3274 1 14.5656 11.7227 -3.33043 0.144366 1 
3275 1 13.7023 8.94688 -3.27229 0.183829 1 
3276 1 12.3331 10.9721 -1.82793 6.71536 5 
3277 1 11.3996 8.19605 -1.62163 0.743566 1 
3278 1 13.783 8.90141 -0.581673 11.2726 5 
3299 1 16.938 27.034 -13.9664 0.000442052 1 
3300 1 16.0718 24.3103 -13.7998 0.000559898 1 
3301 1 18.4774 25.1052 -12.4976 0.000865405 1 
3302 1 17.6151 22.3864 -12.3193 0.00145751 1 
3303 1 16.1588 24.4221 -10.9304 0.00179402 1 
3304 1 15.3058 21.7081 -10.7507 0.00315495 1 
3305 1 17.6967 22.4987 -9.43236 0.00519734 1 
3306 1 16.8525 19.7908 -9.26745 0.00367691 1 
3307 1 15.3801 21.8277 -7.84812 0.0100833 1 
3308 1 14.555 19.1145 -7.71264 0.0101516 1 
3309 1 16.9185 19.9128 -6.35763 0.00995491 1 
3310 1 16.1111 17.192 -6.23894 0.034144 1 
3311 1 14.623 19.2288 -4.79312 0.073948 1 
3312 1 13.8511 16.4851 -4.78536 0.0756913 1 
3313 1 16.1584 17.2496 -3.27831 1.7955 5 
3314 1 15.4009 14.5297 -3.32778 7.29924 5 
3315 1 13.9167 16.4917 -1.75091 11.8859 5 
3316 1 13.1109 13.6727 -2.0269 10.2476 5 
3317 1 14.8315 11.632 -0.234566 12.3012 5 
3331 1 17.8118 29.7613 -14.124 0.000298196 1 
3333 1 19.3498 27.8324 -12.668 0.000657015 1 
3334 1 17.9056 29.8781 -11.2756 0.000709259 1 
3335 1 17.0265 27.1478 -11.1151 0.00157931 1 
3336 1 19.4389 27.9477 -9.82714 0.0023446 1 
3337 1 18.5597 25.2153 -9.64315 0.00371457 1 
3338 1 17.1042 27.267 -8.2802 0.00686235 1 
3339 1 16.2294 24.5352 -8.06073 0.00758073 1 
3340 1 18.6296 25.3312 -6.81008 0.0217803 1 
3341 1 17.756 22.6164 -6.52759 0.025354 1 
3342 1 16.2853 24.6645 -5.19218 0.0351296 1 
3343 1 15.4166 21.9548 -4.92444 0.0638205 1 
3344 1 17.7961 22.7808 -3.62295 0.131917 1 
3345 1 16.9216 20.0183 -3.45077 0.14377 1 
3346 1 15.4509 22.2169 -2.02626 5.59713 5 
3347 1 14.5454 19.3471 -1.78514 3.97861 5 
3348 1 16.8716 20.241 -0.727666 11.5153 5 
3360 1 17.9923 30.0019 -8.43335 0.00228763 1 
3362 1 19.5221 28.0725 -7.00786 0.0145552 1 
3363 1 18.0738 30.1424 -5.58232 0.0388747 1 
3364 1 17.1787 27.4035 -5.4751 0.0369121 1 
3365 1 19.6015 28.217 -4.22775 0.128874 1 
3366 1 18.6863 25.4619 -4.02487 0.230036 1 
3367 1 17.2648 27.603 -2.69842 3.97239 5 
3368 1 16.3437 24.8673 -2.26805 1.41206 1 
3369 1 18.7609 25.7573 -1.33172 8.08286 5 
3370 1 17.894 23.1016 -0.54007 9.95417 5 
3382 1 18.1828 30.3341 -2.67622 0.851715 1 
3384 1 19.6917 28.3892 -1.4697 10.8786 5 
3969 1 16.1984 4.6918 -14.5148 0.000273046 1 
3970 1 15.3185 1.96599 -14.3739 0.000239047 1 
3971 1 13.8896 4.00041 -12.9803 0.00045496 1 
3972 1 13.0051 1.27795 -12.8301 0.000434107 1 
3973 1 15.4371 2.07301 -11.5244 0.000642169 1 
3974 1 13.1199 1.38351 -9.98189 0.00178672 1 
4019 1 17.9399 10.1512 -14.7686 0.000297324 1 
4020 1 17.0726 7.42072 -14.6465 0.000320974 1 
4021 1 15.6411 9.45837 -13.2438 0.00054452 1 
4022 1 14.769 6.72749 -13.1185 0.00052783 1 
4023 1 17.1982 7.5282 -11.7958 0.000788952 1 
4024 1 16.3225 4.79807 -11.6659 0.000528149 1 
4025 1 14.8957 6.82946 -10.2771 0.00135787 1 
4026 1 14.0124 4.10384 -10.1385 0.00115327 1 
4027 1 16.4495 4.89737 -8.81586 0.00180076 1 
4028 1 15.5574 2.17455 -8.67855 0.00207642 1 
4029 1 14.1376 4.19998 -7.30395 0.00595159 1 
4030 1 13.2354 1.48405 -7.14137 0.0117605 1 
4031 1 15.6786 2.26538 -5.83775 0.0122117 1 
4032 1 13.3419 1.55472 -4.32207 0.164047 1 
4070 1 18.8007 12.8797 -14.8846 0.000302777 1 
4071 1 17.3609 14.9185 -13.4651 0.000620834 1 
4072 1 16.5047 12.1904 -13.3577 0.000527297 1 
4073 1 18.9175 12.9953 -12.014 0.000787632 1 
4074 1 18.063 10.2625 -11.9101 0.00073443 1 
4075 1 16.6263 12.3014 -10.5007 0.00169038 1 
4076 1 15.768 9.56321 -10.3972 0.00130853 1 
4077 1 18.1875 10.3678 -9.05241 0.00200819 1 
4078 1 17.3266 7.62738 -8.94956 0.00260225 1 
4079 1 15.8972 9.65495 -7.5546 0.00313937 1 
4080 1 15.0235 6.91761 -7.44197 0.00580419 1 
4081 1 17.4556 7.70649 -6.11508 0.0217041 1 
4082 1 16.5798 4.98564 -5.94756 0.0324672 1 
4083 1 15.1399 6.97958 -4.61173 0.062104 1 
4084 1 14.2581 4.28406 -4.49043 0.0632778 1 
4085 1 16.6955 5.07679 -3.02587 0.994723 5 
4086 1 15.7988 2.35929 -3.0303 5.24068 5 
4087 1 14.3493 4.35457 -1.67416 13.6159 5 
4088 1 13.4472 1.6905 -1.61287 8.23894 5 
4117 1 19.0671 20.3535 -13.7224 0.000994764 1 
4118 1 18.2132 17.6388 -13.5815 0.00107596 1 
4119 1 20.615 18.435 -12.2471 0.00139931 1 
4120 1 19.7659 15.7202 -12.1189 0.00149968 1 
4121 1 18.3136 17.7557 -10.6899 0.00305688 1 
4122 1 17.473 15.0353 -10.5885 0.00170938 1 
4123 1 19.8656 15.8385 -9.22329 0.00517912 1 
4124 1 19.0317 13.1087 -9.1388 0.00284099 1 
4125 1 17.5776 15.1488 -7.70528 0.00511335 1 
4126 1 16.7456 12.404 -7.65235 0.00977537 1 
4127 1 19.1392 13.2146 -6.25464 0.01809 1 
4128 1 18.309 10.4617 -6.19334 0.00811866 1 
4129 1 16.8483 12.491 -4.83856 0.112302 1 
4130 1 16.018 9.72847 -4.71618 0.0228376 1 
4131 1 18.428 10.5432 -3.32761 0.26045 1 
4132 1 17.5465 7.74601 -3.33444 0.31044 1 
4133 1 16.121 9.73257 -1.90671 6.70142 5 
4134 1 15.1902 6.93291 -1.68656 0.883456 1 
4135 1 17.5668 7.60328 -0.660401 11.6788 5 
4156 1 20.7946 25.7918 -14.0565 0.00040587 1 
4157 1 19.9268 23.0692 -13.8865 0.000568365 1 
4158 1 22.335 23.8633 -12.5841 0.000763111 1 
4159 1 21.4704 21.1461 -12.4043 0.00143591 1 
4160 1 20.0162 23.1774 -11.0149 0.0018114 1 
4161 1 19.1596 20.4666 -10.8326 0.00276883 1 
4162 1 21.5543 21.255 -9.51417 0.00515827 1 
4163 1 20.7035 18.5502 -9.3486 0.00291271 1 
4164 1 19.2342 20.5826 -7.92838 0.00769768 1 
4165 1 18.3983 17.8732 -7.78166 0.0097042 1 
4166 1 20.7655 18.669 -6.439 0.00599886 1 
4167 1 19.9461 15.955 -6.30763 0.0248755 1 
4168 1 18.4429 17.9868 -4.85523 0.0479159 1 
4169 1 17.6607 15.2529 -4.82371 0.0622702 1 
4170 1 19.9995 16.0471 -3.37093 1.42848 5 
4171 1 19.2373 13.3084 -3.37562 2.16294 5 
4172 1 17.7879 15.2002 -1.84787 12.195 5 
4173 1 16.8841 12.4641 -2.07998 7.13128 5 
4174 1 18.5087 10.2906 -0.293052 12.6709 5 
4188 1 21.669 28.5193 -14.2186 0.000312109 1 
4190 1 23.209 26.5894 -12.758 0.000525573 1 
4191 1 21.7669 28.6314 -11.3723 0.000631407 1 
4192 1 20.8868 25.901 -11.2034 0.0012265 1 
4193 1 23.3025 26.6989 -9.91321 0.00132272 1 
4194 1 22.421 23.9689 -9.72479 0.00293211 1 
4195 1 20.9697 26.0125 -8.36384 0.00432627 1 
4196 1 20.0897 23.2846 -8.14192 0.00767154 1 
4197 1 22.4943 24.078 -6.8833 0.0176239 1 
4198 1 21.6165 21.3684 -6.60544 0.0252596 1 
4199 1 20.1438 23.4013 -5.26785 0.0325931 1 
4200 1 19.2757 20.6993 -5.00345 0.0420344 1 
4201 1 21.6585 21.5208 -3.69099 0.13183 1 
4202 1 20.7799 18.7589 -3.53282 0.128964 1 
4203 1 19.3014 20.9164 -2.11128 6.39074 5 
4204 1 18.392 18.0437 -1.8517 3.15457 5 
4205 1 20.7289 18.9052 -0.811173 11.0337 5 
4219 1 21.8598 28.7459 -8.53403 0.00110038 1 
4221 1 23.39 26.8133 -7.08389 0.00703791 1 
4222 1 21.9479 28.8667 -5.69087 0.018311 1 
4223 1 21.042 26.1343 -5.54527 0.0212741 1 
4224 1 23.4711 26.9361 -4.28589 0.0753574 1 
4225 1 22.5525 24.1921 -4.0898 0.207369 1 
4226 1 21.1097 26.2888 -2.75089 4.00761 5 
4227 1 20.1789 23.5646 -2.33703 1.33362 1 
4228 1 22.605 24.4232 -1.39514 8.16047 5 
4229 1 21.7078 21.7559 -0.580457 10.0266 5 
4243 1 22.0381 28.9732 -2.80929 0.528929 1 
4245 1 23.5521 27.0846 -1.48876 11.0939 5 
4814 1 20.0528 3.45749 -14.5973 0.000191244 1 
4815 1 19.1737 0.730954 -14.4606 0.00018541 1 
4816 1 17.7478 2.76522 -13.0612 0.000348124 1 
4817 1 16.8626 0.0412212 -12.9174 0.000313716 1 
4818 1 19.2924 0.840156 -11.6059 0.000661987 1 
4819 1 16.9772 0.147998 -10.0639 0.00111063 1 
4866 1 21.79 8.91685 -14.8513 0.000194748 1 
4867 1 20.9249 6.18666 -14.7279 0.000204761 1 
4868 1 19.4952 8.22448 -13.3194 0.000393554 1 
4869 1 18.626 5.49298 -13.1952 0.000378243 1 
4870 1 21.0494 6.29652 -11.8685 0.000500066 1 
4871 1 20.177 3.5658 -11.7397 0.00050184 1 
4872 1 18.7528 5.59699 -10.3424 0.00089388 1 
4873 1 17.871 2.87069 -10.2106 0.00084766 1 
4874 1 20.3069 3.66765 -8.87916 0.002382 1 
4875 1 19.4142 0.944923 -8.75633 0.00464162 1 
4876 1 17.9943 2.97183 -7.36476 0.00459602 1 
4877 1 17.0901 0.248915 -7.21507 0.00630253 1 
4878 1 19.5314 1.03998 -5.93187 0.0502888 1 
4879 1 17.1991 0.325347 -4.37728 0.0985597 1 
4919 1 22.6496 11.6446 -14.971 0.000223136 1 
4920 1 21.2105 13.6829 -13.5473 0.000452459 1 
4921 1 20.3558 10.956 -13.4339 0.000371231 1 
4922 1 22.7641 11.7609 -12.0954 0.000468096 1 
4923 1 21.911 9.03039 -11.9851 0.000437138 1 
4924 1 20.4742 11.0694 -10.5634 0.000941075 1 
4925 1 19.6205 8.33243 -10.4612 0.000980162 1 
4926 1 22.032 9.1416 -9.11748 0.00108584 1 
4927 1 21.1772 6.40069 -9.01128 0.00179676 1 
4928 1 19.7464 8.43336 -7.60485 0.00328938 1 
4929 1 18.8821 5.68944 -7.49262 0.0051147 1 
4930 1 21.3084 6.49556 -6.16745 0.0200282 1 
4931 1 20.4469 3.7565 -6.0089 0.0331943 1 
4932 1 19.0267 5.74448 -4.64506 0.0683144 1 
4933 1 18.1185 3.06903 -4.52712 0.0690145 1 
4934 1 20.6157 3.7529 -3.07124 0.817167 1 
4935 1 19.6615 1.12608 -3.17161 0.936452 1 
4936 1 18.1623 3.21359 -1.67607 8.94421 5 
4937 1 17.312 0.438335 -1.65619 6.32343 5 
4970 1 22.9201 19.1164 -13.8106 0.000916154 1 
4971 1 22.0638 16.4024 -13.6684 0.000871408 1 
4972 1 24.4673 17.1989 -12.3389 0.00112206 1 
4973 1 23.6148 14.4844 -12.2094 0.000863549 1 
4974 1 22.1637 16.5186 -10.7753 0.00233157 1 
4975 1 21.3195 13.8 -10.666 0.000981137 1 
4976 1 23.7152 14.6029 -9.31729 0.00246877 1 
4977 1 22.8743 11.8763 -9.21514 0.00111606 1 
4978 1 21.4193 13.9164 -7.78103 0.00341474 1 
4979 1 20.589 11.1791 -7.68582 0.00317962 1 
4980 1 22.976 11.9875 -6.32953 0.00747706 1 
4981 1 22.15 9.24908 -6.24913 0.00350417 1 
4982 1 20.6978 11.2793 -4.79441 0.0374107 1 
4983 1 19.8574 8.53027 -4.75219 0.0240047 1 
4984 1 22.2502 9.37089 -3.38113 0.0564742 1 
4985 1 21.4101 6.58502 -3.38427 0.298124 1 
4986 1 19.9672 8.64378 -1.91172 1.24794 5 
4987 1 19.165 5.80986 -1.80283 1.07936 5 
4988 1 21.5393 6.84267 -0.6664 8.7495 5 
5013 1 24.6511 24.5526 -14.1457 0.000357446 1 
5014 1 23.7819 21.8311 -13.9748 0.00053999 1 