ITEM: TIMESTEP
0
ITEM: NUMBER OF ATOMS
9396
ITEM: BOX BOUNDS xy xz yz pp pp ss
0 106.792366439 25.388373908
0 64.635636226 0
-222.7894157807084 249.9315591500394 0
ITEM: ATOMS id type x y z c_csym c_cna 
1 1 7.45483 1.04102 -0.426079 4.87752 5 
2 1 10.1189 2.19188 -0.435408 10.3402 5 
3 1 9.20195 4.7799 -0.370081 9.60165 5 
4 1 30.3735 64.5493 -1.28077 6.97505 5 
5 1 3.85318 2.58535 -1.01535 5.95253 5 
6 1 6.37764 3.78188 -0.635993 8.45033 5 
7 1 5.52712 6.43185 -0.427583 9.12021 5 
8 1 8.32249 7.37908 -0.179174 8.98578 5 
9 1 7.1211 9.85697 0.269832 10.2252 5 
10 1 106.676 64.5301 -0.393467 7.99265 5 
11 1 1.24753 1.73936 -2.0795 5.75972 5 
12 1 81.6497 4.48369 -2.14708 4.32408 5 
13 1 2.87963 5.27027 -1.38675 7.14152 5 
14 1 83.1832 8.03568 -1.55878 2.80385 5 
15 1 4.47675 9.04119 -0.950344 6.85414 5 
16 1 84.8262 11.7097 -1.05165 5.38381 5 
17 1 6.07441 12.4689 -0.370047 7.05647 5 
18 1 86.3547 15.3448 -0.288284 2.84017 5 
19 1 7.54905 16.1936 0.208868 4.23314 5 
20 1 87.9056 19.1326 0.163691 5.9488 5 
21 1 82.1216 10.7098 -1.48199 1.53065 5 
22 1 83.82 14.4513 -0.867515 2.32005 5 
23 1 82.7382 17.1061 -1.20181 6.37678 5 
24 1 85.4456 18.0601 -0.552083 6.33478 5 
25 1 84.5922 20.7759 -0.471176 10.0087 5 
26 1 87.2983 21.8415 0.222137 12.3135 5 
27 1 86.0417 24.3985 -0.291051 11.823 5 
28 1 81.9377 19.7387 -1.11745 6.07116 5 
29 1 83.3588 23.3462 -0.0952081 9.34813 5 
30 1 82.4319 25.9375 -0.673796 5.66091 5 
31 1 85.0201 27.3264 -0.185077 8.39651 5 
32 1 83.8213 29.8337 -0.236284 3.98634 5 
33 1 81.4118 28.8196 -0.956219 6.77768 5 
34 1 82.5452 32.6658 -0.241631 6.17287 5 
35 1 81.9933 35.44 -0.181406 12.6416 5 
36 1 83.6494 38.4552 0.429827 12.4809 5 
37 1 82.7596 41.6581 0.416824 10.2671 5 
38 1 83.3806 44.6728 0.47237 11.2168 5 
39 1 29.1913 0.299473 -0.281535 6.49041 5 
40 1 26.087 1.88359 -0.843029 8.11211 5 
41 1 28.6056 3.06672 -0.194463 12.7116 5 
42 1 27.6731 5.67961 -0.702951 10.5258 5 
43 1 30.2858 6.04361 0.447838 12.4526 5 
44 1 29.4576 8.93183 0.327068 7.4596 5 
45 1 46.0945 64.6136 -2.08252 0.413157 1 
46 1 23.4512 0.997694 -1.58088 5.65272 5 
47 1 21.1843 1.90129 -0.167464 10.2798 5 
48 1 22.5608 3.74034 -1.54246 1.11974 1 
49 1 25.1248 4.52526 -0.744822 5.1011 5 
50 1 24.1515 7.25729 -1.17377 5.45233 5 
51 1 26.7795 8.31247 -0.609322 10.5752 5 
52 1 26.0484 11.0376 -0.376931 8.16601 5 
53 1 28.8016 11.6196 0.572506 12.601 5 
54 1 27.3381 14.1635 0.0222704 11.1152 5 
55 1 18.5644 0.761238 -0.170477 7.51484 5 
56 1 17.1616 1.54359 -2.60911 0.224697 1 
57 1 19.7234 2.64826 -2.26203 0.659874 1 
58 1 17.5702 3.42672 -0.568062 6.54824 5 
59 1 20.3399 4.47235 -0.120376 7.07827 5 
60 1 18.8073 5.30081 -2.32946 0.369999 1 
61 1 21.4958 6.39679 -1.59127 1.87277 5 
62 1 18.9693 6.78434 -0.0174751 8.05101 5 
63 1 20.4253 8.88867 -1.51203 3.37124 5 
64 1 23.3074 10.0249 -1.02426 5.95147 5 
65 1 22.0888 12.6573 -1.1883 6.2642 5 
66 1 24.662 13.4809 -0.120308 9.10177 5 
67 1 23.6262 16.114 -0.608329 8.18124 5 
68 1 26.4429 17.2137 0.0226998 9.76036 5 
69 1 25.2292 19.7684 0.0532672 5.65596 5 
70 1 14.57 0.549375 -3.20546 0.120803 1 
71 1 12.3653 1.30681 -1.76482 5.33679 5 
72 1 14.9875 2.25378 -0.837407 5.95557 5 
73 1 13.5738 3.23403 -3.3712 0.153313 1 
74 1 16.1206 4.20574 -2.8326 0.328419 1 
75 1 13.9839 4.86689 -1.05687 3.20045 5 
76 1 16.4962 6.09256 -0.910707 10.3792 5 
77 1 15.093 6.97281 -2.97625 0.415857 1 
78 1 17.8248 8.044 -2.24812 0.785989 1 
79 1 15.61 8.76371 -0.707419 6.05513 5 
80 1 18.228 9.57783 0.378875 9.17183 5 
81 1 16.7943 10.6441 -2.31571 0.235732 1 
82 1 19.3864 11.5605 -1.68473 0.435549 1 
83 1 17.2072 12.178 -0.0102758 5.34322 5 
84 1 18.4549 14.2401 -1.82179 0.292529 1 
85 1 21.0076 15.3605 -1.16952 5.29881 5 
86 1 20.0752 18.1166 -0.905745 8.68473 5 
87 1 22.7986 18.8888 -0.982268 11.8388 5 
88 1 21.6045 21.4587 -0.707184 6.4974 5 
89 1 24.1562 22.5916 -0.0555717 6.32019 5 
90 1 23.42 25.2814 0.0915432 11.4293 5 
91 1 24.7005 29.2185 0.363693 8.93763 5 
92 1 9.60035 0.289778 -2.29758 0.429874 1 
93 1 8.24318 1.20429 -4.55144 0.0573018 1 
94 1 10.878 2.2371 -3.92626 0.124754 1 
95 1 8.56282 3.0007 -2.42027 0.73891 1 
96 1 11.4379 4.05011 -1.79514 1.80915 5 
97 1 9.89345 4.92425 -4.02733 0.0844396 1 
98 1 12.5621 5.92501 -3.49562 0.0908303 1 
99 1 10.4106 6.70904 -1.8697 0.759775 1 
100 1 12.9552 7.64185 -1.26741 0.450553 1 
101 1 11.5321 8.61429 -3.57328 0.0391137 1 
102 1 14.162 9.64716 -2.95219 0.0401888 1 
103 1 11.9794 10.3026 -1.3837 0.571561 1 
104 1 14.5679 11.4911 -0.677252 4.1308 5 
105 1 13.1553 12.3343 -2.96453 0.141456 1 
106 1 15.7476 13.2888 -2.38908 0.295227 1 
107 1 13.5539 14.2338 -0.458788 8.77248 5 
108 1 16.3159 14.9688 -0.369767 7.22327 5 
109 1 14.7122 15.9918 -2.46064 0.320457 1 
110 1 17.4209 17.0256 -1.81015 0.446068 1 
111 1 15.1021 17.5839 -0.154961 5.99478 5 
112 1 16.312 19.6601 -1.92429 0.289666 1 
113 1 18.8607 20.6907 -1.45067 6.55777 5 
114 1 16.8382 21.529 0.65149 11.0619 5 
115 1 18.0032 23.3732 -1.26653 5.91462 5 
116 1 20.7298 24.2649 -0.721422 11.466 5 
117 1 19.5415 26.8682 -0.313531 9.80951 5 
118 1 22.1964 27.9711 -0.439756 8.15175 5 
119 1 21.1692 30.7277 -0.506938 6.90879 5 
120 1 23.6431 31.8617 -0.0232881 11.1956 5 
121 1 22.8097 34.5113 -0.433654 10.3369 5 
122 1 5.651 0.198074 -5.08589 0.0114715 1 
123 1 3.46629 0.950344 -3.47528 0.241252 1 
124 1 6.04537 1.95566 -2.82558 0.215696 1 
125 1 4.66725 2.89072 -5.1831 0.0204052 1 
126 1 7.24696 3.91413 -4.64012 0.0594807 1 
127 1 5.06998 4.63495 -2.91502 0.189999 1 
128 1 7.63909 5.69793 -2.39681 0.388233 1 
129 1 6.26942 6.58742 -4.675 0.0259423 1 
130 1 8.89755 7.58705 -4.12202 0.0375906 1 
131 1 6.70206 8.30392 -2.3734 0.432001 1 
132 1 9.3099 9.29043 -1.88189 0.57862 1 
133 1 7.89795 10.2348 -4.16648 0.0203396 1 
134 1 10.5133 11.2887 -3.58486 0.0305783 1 
135 1 8.2886 11.9446 -1.93315 0.400917 1 
136 1 10.9565 13.0326 -1.34995 6.99791 5 
137 1 9.47743 13.9298 -3.63546 0.0201807 1 
138 1 12.1214 14.9637 -2.98587 0.248279 1 
139 1 9.8382 15.6226 -1.37772 4.96875 5 
140 1 12.2902 16.8168 -0.888665 8.07459 5 
141 1 11.0241 17.6486 -3.14289 0.262415 1 
142 1 13.739 18.6637 -2.50121 0.232186 1 
143 1 11.5461 19.5645 -1.0942 6.65538 5 
144 1 14.2043 20.4138 -0.267606 12.2773 5 
145 1 12.7538 21.4298 -2.59445 0.451418 1 
146 1 15.3235 22.3361 -1.90988 0.318745 1 
147 1 13.0313 23.0436 -0.00836433 6.26646 5 
148 1 15.6284 24.142 0.0953903 10.5206 5 
149 1 14.2301 25.0106 -2.09019 0.418978 1 
150 1 16.9297 26.0685 -1.52724 6.52259 5 
151 1 14.6468 26.99 -0.0313184 9.72877 5 
152 1 15.8767 28.7922 -1.57405 3.84465 5 
153 1 18.5236 29.4384 -0.878097 5.48642 5 
154 1 17.676 32.237 -1.28001 6.99611 5 
155 1 20.1449 33.3613 -0.424921 4.85962 5 
156 1 19.0645 36.1019 -0.631631 8.3881 5 
157 1 21.8917 37.0994 -0.36861 9.58322 5 
158 1 21.0093 39.6979 -0.17872 8.99888 5 
159 1 26.1899 64.5566 -4.05724 0.184464 1 
160 1 2.01686 1.8839 -5.76414 0.0241458 1 
161 1 2.49858 3.64546 -3.59363 0.280243 1 
162 1 82.4194 4.57628 -5.87139 0.0203011 1 
163 1 3.66669 5.57608 -5.2946 0.0279831 1 
164 1 82.8433 6.35346 -3.72725 0.105555 1 
165 1 4.0811 7.27244 -3.02883 0.217866 1 
166 1 84.0531 8.25815 -5.37123 0.018994 1 
167 1 5.26771 9.23572 -4.7682 0.0225704 1 
168 1 84.4146 9.98132 -3.17466 0.0535755 1 
169 1 5.70284 10.923 -2.56411 0.473366 1 
170 1 85.656 11.9257 -4.82495 0.0227463 1 
171 1 6.86708 12.9209 -4.24671 0.0163779 1 
172 1 86.0342 13.6604 -2.57866 0.165282 1 
173 1 7.23028 14.5878 -1.98184 0.133218 1 
174 1 87.2614 15.5873 -4.30796 0.00704346 1 
175 1 8.4585 16.5917 -3.69463 0.0432427 1 
176 1 87.6572 17.3134 -2.07055 0.124235 1 
177 1 8.89012 18.3115 -1.2918 3.58696 5 
178 1 88.88 19.2403 -3.80126 0.133268 1 
179 1 10.0496 20.3064 -3.27887 0.243374 1 
180 1 89.2152 21.0409 -1.74438 6.37614 5 
181 1 10.4854 22.1231 -1.1324 5.74251 5 
182 1 9.06997 23.0199 -3.33229 0.0610668 1 
183 1 11.7076 24.0325 -2.67297 0.256275 1 
184 1 90.8906 24.7526 -1.00331 5.46072 5 
185 1 12.0516 25.6131 -0.2814 6.05045 5 
186 1 10.6372 26.6233 -2.78355 0.197636 1 
187 1 13.2765 27.6757 -2.2745 0.339247 1 
188 1 92.5097 28.3179 -0.756505 7.08456 5 
189 1 13.5195 29.5823 0.0497907 5.16173 5 
190 1 12.2566 30.3482 -2.35917 0.295815 1 
191 1 14.9712 31.4561 -1.5294 3.86696 5 
192 1 93.9772 32.2235 -0.390045 7.98043 5 
193 1 13.9276 34.0719 -2.07636 5.84019 5 
194 1 16.5394 34.9065 -1.01619 5.95186 5 
195 1 15.562 37.5943 -1.38623 7.11615 5 
196 1 18.2095 38.7506 -0.420393 9.18129 5 
197 1 17.1579 41.3602 -0.948659 6.82391 5 
198 1 19.8062 42.1763 0.266618 10.2243 5 
199 1 18.7562 44.7878 -0.378452 7.04434 5 
200 1 20.2439 48.508 0.198675 4.10505 5 
201 1 81.4049 7.27639 -5.97677 0.0102629 1 
202 1 81.7921 9.04896 -3.77363 0.0683126 1 
203 1 83.0246 10.9513 -5.44878 0.0101093 1 
204 1 83.3959 12.6755 -3.1948 0.0628044 1 
205 1 82.0158 13.6185 -5.50919 0.00690766 1 
206 1 84.6429 14.5974 -4.91294 0.00348793 1 
207 1 82.4156 15.3188 -3.27506 0.0746999 1 
208 1 85.0378 16.3137 -2.68957 0.0817383 1 
209 1 83.6316 17.2793 -4.99027 0.00575963 1 
210 1 86.2521 18.2686 -4.40306 0.00552892 1 
211 1 84.047 19.044 -2.77819 0.102808 1 
212 1 86.6602 20.018 -2.21081 0.243623 1 
213 1 85.2409 20.9563 -4.50634 0.0207719 1 
214 1 87.8266 21.9768 -3.94017 0.0716743 1 
215 1 85.614 22.6593 -2.23891 0.537029 1 
216 1 88.3078 23.7095 -1.70905 4.81386 5 
217 1 86.8305 24.6387 -3.97323 0.0526075 1 
218 1 89.4656 25.6798 -3.34388 0.173034 1 
219 1 87.1922 26.4275 -1.8666 6.28257 5 
220 1 89.7403 27.3327 -0.875963 7.056 5 
221 1 88.4235 28.2951 -3.48719 0.169862 1 
222 1 91.0188 29.2787 -2.88924 0.161774 1 
223 1 88.7614 29.8798 -1.29731 5.58447 5 
224 1 91.4733 31.0393 -0.621621 4.91444 5 
225 1 90.093 31.9236 -3.03846 0.355852 1 
226 1 92.5658 33.0512 -2.51708 0.587082 1 
227 1 90.4558 33.6685 -0.686616 4.57138 5 
228 1 93.2067 35.0167 -0.577079 8.85736 5 
229 1 91.531 35.7661 -2.51718 0.587214 1 
230 1 94.3259 36.8188 -2.14186 5.41791 5 
231 1 92.0947 37.6506 -0.438058 7.76674 5 
232 1 93.3103 39.4835 -2.05241 2.89801 5 
233 1 95.8619 40.3586 -1.55671 2.87174 5 
234 1 94.7966 43.0296 -1.48116 1.58735 5 
235 1 97.5066 44.0256 -1.05255 5.3531 5 
236 1 96.4985 46.7639 -0.871809 2.30475 5 
237 1 99.0435 47.6349 -0.322742 2.87867 5 
238 1 98.1224 50.3617 -0.568207 6.23646 5 
239 1 100.574 51.4318 0.161963 5.98309 5 
240 1 99.9945 54.1515 0.228777 12.4494 5 
241 1 81.3909 18.0143 -3.39276 0.103961 1 
242 1 82.632 19.9706 -5.06819 0.0156267 1 
243 1 83.0708 21.7217 -2.80207 0.358233 1 
244 1 81.6211 22.6318 -5.14878 0.0103332 1 
245 1 84.2287 23.6299 -4.56722 0.0188168 1 
246 1 82.0363 24.37 -2.909 0.358809 1 
247 1 84.5589 25.3699 -2.38139 0.552062 1 
248 1 83.2017 26.3278 -4.68402 0.0300881 1 
249 1 85.7935 27.334 -4.08895 0.0295037 1 
250 1 83.5931 28.0539 -2.47931 0.189326 1 
251 1 86.1448 29.1539 -1.84414 5.68414 5 
252 1 84.781 30.0531 -4.11638 0.151121 1 
253 1 87.3678 30.968 -3.57781 0.374872 1 
254 1 85.1821 31.9211 -1.58837 8.69932 5 
255 1 87.9893 32.6681 -1.58746 8.28085 5 
256 1 86.3912 33.6945 -3.64282 0.380208 1 
257 1 89.0285 34.7244 -3.02407 0.320537 1 
258 1 86.788 35.245 -1.21456 7.17781 5 
259 1 89.3154 36.5401 -0.779965 6.80486 5 
260 1 88.0225 37.3712 -3.07465 0.0989419 1 
261 1 90.6081 38.4564 -2.58705 0.160807 1 
262 1 88.4501 39.1966 -0.754433 9.78528 5 
263 1 91.2558 40.3059 -0.406488 7.73532 5 
264 1 89.6578 41.0903 -2.62357 0.172076 1 
265 1 92.2644 42.1497 -2.10701 1.82532 5 
266 1 90.0414 42.7685 -0.301647 6.12434 5 
267 1 92.6046 43.7264 0.236967 7.90789 5 
268 1 91.2437 44.7676 -2.05748 0.0889344 1 
269 1 93.8766 45.7297 -1.51084 0.0703141 1 
270 1 91.6748 46.3974 0.201774 9.27525 5 
271 1 92.8805 48.3657 -1.58779 0.131214 1 
272 1 95.4213 49.4188 -1.20036 6.32203 5 
273 1 94.6209 52.0526 -1.11105 6.00746 5 
274 1 97.2862 53.0797 -0.47241 10.0573 5 
275 1 96.0504 55.6506 -0.0945756 9.41774 5 
276 1 98.7352 56.7081 -0.288886 11.7645 5 
277 1 97.712 59.6265 -0.197304 8.39928 5 
278 1 82.1813 29.0312 -4.71981 0.0266974 1 
279 1 82.5637 30.8411 -2.48724 0.474133 1 
280 1 83.7965 32.678 -4.21989 0.275648 1 
281 1 81.507 33.4701 -2.61954 0.43533 1 
282 1 84.0738 34.4841 -2.19649 6.70109 5 
283 1 82.7519 35.4248 -4.34623 0.168026 1 
284 1 85.453 36.4022 -3.64221 0.282867 1 
285 1 83.2479 37.1598 -2.08484 3.89745 5 
286 1 85.8885 38.0365 -1.33429 6.85129 5 
287 1 84.4594 39.0887 -3.72057 0.165591 1 
288 1 87.0256 40.0315 -3.14665 0.222731 1 
289 1 84.9332 40.6506 -1.22847 4.29765 5 
290 1 87.4202 41.8942 -1.14852 10.6504 5 
291 1 86.0581 42.7336 -3.33051 0.365375 1 
292 1 88.6831 43.8147 -2.61174 0.294376 1 
293 1 86.4634 44.5759 -1.00668 6.18096 5 
294 1 89.0617 45.4403 -0.154144 7.74764 5 
295 1 87.6762 46.4356 -2.69497 0.118751 1 
296 1 90.2744 47.3897 -2.1225 0.0903498 1 
297 1 88.1308 48.1165 -0.498403 10.4732 5 
298 1 90.7752 49.2015 0.026577 10.9379 5 
299 1 89.3137 50.0977 -2.25493 0.191136 1 
300 1 91.8899 51.0185 -1.70398 0.402326 1 
301 1 89.6828 51.8766 0.271333 7.25708 5 
302 1 90.8823 53.738 -1.88906 2.27356 5 
303 1 93.5599 54.7461 -1.35369 6.29095 5 
304 1 92.5067 57.409 -1.16299 5.8492 5 
305 1 95.1238 58.2426 -0.674431 5.65469 5 
306 1 94.1112 61.1222 -0.959797 6.83215 5 
307 1 96.5217 62.1366 -0.239438 3.99025 5 
308 1 81.8308 38.1295 -4.29295 0.164256 1 
309 1 82.3555 39.9822 -1.98676 1.49964 1 
310 1 83.4733 41.7106 -3.85093 0.265135 1 
311 1 83.9525 43.3269 -1.71895 5.68506 5 
312 1 82.411 44.3871 -3.93269 0.181791 1 
313 1 85.0986 45.4019 -3.38195 0.135778 1 
314 1 82.9176 46.0637 -1.85138 10.0823 5 
315 1 85.3737 47.1173 -1.10154 6.66047 5 
316 1 84.0566 48.1075 -3.41115 0.119009 1 
317 1 86.6235 49.0908 -2.76669 0.297348 1 
318 1 84.2892 49.9964 -1.26902 11.226 5 
319 1 87.1929 50.884 -0.785326 6.36334 5 
320 1 85.6264 51.8625 -2.868 0.187824 1 
321 1 88.3075 52.8055 -2.32632 0.22546 1 
322 1 86.1525 53.5575 -0.52668 7.17266 5 
323 1 88.8403 54.5179 -0.178679 9.3691 5 
324 1 87.2194 55.4804 -2.35203 0.449689 1 
325 1 90.0051 56.4204 -1.96121 4.64674 5 
326 1 87.9834 57.2772 -0.405124 9.30371 5 
327 1 88.9709 59.2026 -2.04427 5.36903 5 
328 1 91.5403 60.1313 -1.47621 5.93584 5 
329 1 90.4595 62.8701 -1.3051 7.17165 5 
330 1 92.9448 63.718 -0.729886 5.94122 5 
331 1 81.4236 47.085 -4.00006 0.12145 1 
332 1 81.8895 48.7625 -1.77348 5.09931 5 
333 1 82.9965 50.8354 -3.47766 0.138166 1 
334 1 83.3738 52.6847 -1.1484 8.31044 5 
335 1 81.9829 53.4916 -3.48438 0.204671 1 
336 1 84.6557 54.5133 -2.89495 0.227787 1 
337 1 82.3891 55.3633 -1.48949 8.82464 5 
338 1 84.937 56.1265 -0.482993 6.54575 5 
339 1 83.6619 57.254 -2.90256 0.43585 1 
340 1 86.1994 58.1796 -2.28612 1.01756 1 
341 1 84.0154 58.8627 -0.453988 4.11356 5 
342 1 87.0734 60.0095 -0.218444 7.48643 5 
343 1 85.2564 60.8327 -2.35832 0.416995 1 
344 1 87.9387 61.9407 -1.90395 1.5438 5 
345 1 85.7754 62.7433 -0.276105 5.15178 5 
346 1 81.4013 57.9964 -1.38736 13.1232 5 
347 1 82.6423 59.8955 -2.95251 0.213253 1 
348 1 83.0473 61.4343 -0.517939 5.69118 5 
349 1 81.6146 62.4589 -3.02059 0.189836 1 
350 1 84.2514 63.4768 -2.52024 0.207094 1 
351 1 82.132 64.1455 -0.936464 5.91183 5 
352 1 48.162 1.03038 -0.427793 4.89791 5 
353 1 50.825 2.17861 -0.438565 10.3252 5 
354 1 49.9099 4.76848 -0.372916 9.62106 5 
355 1 71.0804 64.5358 -1.28119 6.96714 5 
356 1 44.5616 2.5753 -1.01686 5.95979 5 
357 1 47.0857 3.77215 -0.639155 8.47735 5 
358 1 46.2359 6.42237 -0.430669 9.1236 5 
359 1 49.0317 7.36782 -0.180899 8.98094 5 
360 1 47.8307 9.84472 0.270423 10.2421 5 
361 1 65.9797 64.5215 -0.395144 7.97788 5 
362 1 39.1907 0.70289 -2.53575 0.573124 1 
363 1 41.9568 1.7288 -2.08175 5.7353 5 
364 1 39.8253 2.66179 -0.600493 8.88826 5 
365 1 40.9567 4.47162 -2.14986 4.2629 5 
366 1 43.5895 5.26012 -1.38783 7.12276 5 
367 1 42.488 8.02376 -1.56037 2.7524 5 
368 1 45.1856 9.02891 -0.953792 6.84225 5 
369 1 44.134 11.6969 -1.05526 5.36507 5 
370 1 46.7869 12.4579 -0.370327 6.89731 5 
371 1 45.6636 15.3146 -0.324633 2.94342 5 
372 1 48.2631 16.1898 0.196332 4.11035 5 
373 1 47.1856 19.1169 0.158878 5.95997 5 
374 1 34.6121 0.327721 -1.59555 8.25938 5 
375 1 37.085 1.31841 -0.703201 4.67507 5 
376 1 35.656 2.36857 -3.05415 0.265692 1 
377 1 38.1733 3.40681 -2.56301 0.47626 1 
378 1 35.9662 4.14623 -0.840208 7.87018 5 
379 1 38.7243 5.27859 -0.472955 8.51132 5 
380 1 37.2432 6.10282 -2.59737 0.190679 1 
381 1 39.9447 7.13415 -2.06186 2.70045 5 
382 1 37.9204 7.93527 -0.377072 9.92685 5 
383 1 38.9004 9.79783 -2.09541 1.66771 5 
384 1 41.4305 10.6964 -1.48876 1.49277 5 
385 1 39.2481 11.3819 0.227598 6.97807 5 
386 1 40.5066 13.3974 -1.51646 0.0739209 1 
387 1 43.1252 14.4362 -0.878286 2.40243 5 
388 1 42.0486 17.089 -1.21233 6.30564 5 
389 1 44.738 18.0383 -0.56723 6.13526 5 
390 1 43.9115 20.7621 -0.473378 10.0764 5 
391 1 46.6126 21.8375 0.226039 12.4092 5 
392 1 45.3526 24.3933 -0.292643 11.6762 5 
393 1 30.415 0.338044 -4.23754 0.275968 1 
394 1 33.0163 1.35251 -3.65774 0.37421 1 
395 1 30.7027 2.13075 -2.2145 6.68251 5 
396 1 33.4142 2.90189 -1.22217 7.31125 5 
397 1 32.0868 4.05545 -3.65672 0.288574 1 
398 1 34.6535 5.02205 -3.09102 0.104876 1 
399 1 32.5296 5.69367 -1.34072 7.12497 5 
400 1 35.1172 6.83506 -0.715608 9.83704 5 
401 1 33.6853 7.6681 -3.16569 0.210199 1 
402 1 36.3241 8.72529 -2.61598 0.218992 1 
403 1 34.1008 9.49448 -1.17764 10.283 5 
404 1 36.6612 10.4045 -0.261634 6.23434 5 
405 1 35.3563 11.4435 -2.61443 0.35724 1 
406 1 37.8718 12.4197 -2.03376 0.11436 1 
407 1 35.6678 13.1031 -0.0893439 6.95333 5 
408 1 38.3037 14.0458 0.205426 9.4333 5 
409 1 36.9065 15.0523 -2.08669 0.141683 1 
410 1 39.5142 16.0324 -1.59234 0.144243 1 
411 1 37.4309 16.8802 0.0236048 11.3913 5 
412 1 38.5485 18.697 -1.70278 0.388367 1 
413 1 41.2638 19.7252 -1.12314 6.20858 5 
414 1 40.203 22.438 -1.35237 8.74953 5 
415 1 42.6798 23.3391 -0.101348 9.42699 5 
416 1 41.7396 25.9262 -0.677489 5.675 5 
417 1 44.3217 27.3116 -0.198929 8.39091 5 
418 1 43.1305 29.8197 -0.239982 3.99765 5 
419 1 25.5769 0.145783 -3.11588 0.125394 1 
420 1 28.1248 1.12829 -2.63132 0.396276 1 
421 1 26.7829 2.0786 -4.89943 0.0295818 1 
422 1 29.3818 3.07994 -4.36274 0.164109 1 
423 1 27.2191 3.803 -2.64783 0.30508 1 
424 1 29.8961 4.79034 -2.09968 3.77257 5 
425 1 28.4634 5.77365 -4.32581 0.0685633 1 
426 1 31.1052 6.73852 -3.74876 0.0977592 1 
427 1 29.0003 7.54744 -2.08576 0.943388 1 
428 1 31.5859 8.31318 -1.32518 3.95834 5 
429 1 30.1342 9.41421 -3.79816 0.0874742 1 
430 1 32.6801 10.3847 -3.30278 0.296376 1 
431 1 30.5527 11.0829 -1.5594 6.73492 5 
432 1 33.174 12.1061 -1.0648 9.20907 5 
433 1 31.7088 13.0707 -3.27814 0.115116 1 
434 1 34.3691 14.0781 -2.68171 0.235062 1 
435 1 32.2192 14.6319 -1.03692 12.97 5 
436 1 34.7886 15.7694 -0.381702 4.55949 5 
437 1 33.2737 16.7593 -2.63387 3.80903 5 
438 1 35.9851 17.7581 -2.25359 0.291808 1 
439 1 33.9722 18.5983 -0.714073 9.85086 5 
440 1 36.3976 19.5783 0.248872 5.51971 5 
441 1 34.9419 20.5052 -2.31275 0.274695 1 
442 1 37.5234 21.433 -1.88023 2.25917 5 
443 1 35.4652 22.2032 -0.176182 9.21487 5 
444 1 36.6208 24.11 -1.95764 4.69056 5 
445 1 39.1225 25.0916 -1.15704 5.91747 5 
446 1 38.1511 27.8139 -1.47549 5.99954 5 
447 1 40.7203 28.8057 -0.960309 6.84869 5 
448 1 39.5519 31.4015 -0.728747 5.9252 5 
449 1 41.883 32.6184 -0.279048 6.47504 5 
450 1 41.2985 35.385 -0.193374 12.7145 5 
451 1 42.9793 38.3623 0.448006 12.4513 5 
452 1 21.558 0.091803 -5.98372 0.00780427 1 
453 1 24.1751 1.10179 -5.42629 0.0110545 1 
454 1 21.9806 1.89303 -3.76098 0.0992239 1 
455 1 24.6456 2.88848 -3.20827 0.142755 1 
456 1 23.1977 3.79076 -5.51347 0.0108068 1 
457 1 25.8302 4.77382 -4.96439 0.0330689 1 
458 1 23.6675 5.54979 -3.28928 0.146102 1 
459 1 26.2462 6.523 -2.80463 0.45591 1 
460 1 24.8341 7.50057 -4.99409 0.037365 1 
461 1 27.5018 8.46888 -4.38808 0.0355751 1 
462 1 25.3317 9.27525 -2.74744 0.19186 1 
463 1 28.0016 10.2175 -2.15083 0.721427 5 
464 1 26.4921 11.1321 -4.46855 0.0428443 1 
465 1 29.1244 12.1307 -3.84039 0.107415 1 
466 1 26.9335 12.8356 -2.24459 1.31272 5 
467 1 29.6311 13.7483 -1.39207 5.15811 5 
468 1 28.1095 14.7653 -3.89831 0.116849 1 
469 1 30.7022 15.7874 -3.17199 1.70097 5 
470 1 28.4387 16.3441 -1.68222 7.3109 5 
471 1 30.1722 18.1395 -0.594521 9.69817 5 
472 1 29.654 18.4807 -3.30388 1.58047 5 
473 1 32.1763 19.4828 -2.66699 1.88868 5 
474 1 29.8972 20.6865 -1.13577 6.59956 5 
475 1 32.7757 21.2519 -0.458941 7.49325 5 
476 1 31.2796 22.2372 -2.89167 0.486994 1 
477 1 33.8395 23.1654 -2.33852 0.409026 1 
478 1 31.549 23.8301 -0.514494 6.54172 5 
479 1 34.5928 24.9694 -0.403874 9.24859 5 
480 1 32.8128 25.8774 -2.28728 1.01337 1 
481 1 35.5802 26.8933 -2.0417 5.38335 5 
482 1 33.6767 27.7003 -0.217919 7.51928 5 
483 1 34.5442 29.6298 -1.90323 1.54144 5 
484 1 37.066 30.5543 -1.30338 7.16094 5 
485 1 36.1441 33.315 -1.58007 5.65306 5 
486 1 38.7802 34.2009 -0.842504 8.11353 5 
487 1 37.8185 36.8425 -0.745263 5.09634 5 
488 1 40.3666 37.9968 -0.702808 10.5245 5 
489 1 39.4733 40.6293 -0.60877 10.5787 5 
490 1 42.1517 41.2506 0.327532 7.46177 5 
491 1 41.4952 43.9383 0.572215 12.5833 5 
492 1 42.1249 64.433 -4.85599 0.0122312 1 
493 1 19.3286 0.815021 -4.35101 0.0791922 1 
494 1 17.9443 1.74413 -6.64809 0.0103045 1 
495 1 20.5716 2.78023 -6.06653 0.0144017 1 
496 1 18.3419 3.51948 -4.4737 0.0930867 1 
497 1 21.0338 4.58207 -3.83803 0.10931 1 
498 1 19.5784 5.4699 -6.14392 0.00790722 1 
499 1 22.2188 6.48566 -5.56119 0.0066765 1 
500 1 20.0133 7.24501 -3.92608 0.089754 1 
501 1 22.6351 8.26684 -3.29947 0.186475 1 
502 1 21.2189 9.16076 -5.6132 0.00853854 1 
503 1 23.8463 10.1685 -5.01122 0.0255784 1 
504 1 21.642 10.8708 -3.30834 0.152699 1 
505 1 24.3293 11.9193 -2.71048 0.350466 1 
506 1 22.8374 12.7994 -5.06527 0.0156474 1 
507 1 25.4648 13.7916 -4.49244 0.0316262 1 
508 1 23.2641 14.5121 -2.819 0.218918 1 
509 1 25.8447 15.4284 -2.1934 0.387752 1 
510 1 24.4474 16.4516 -4.555 0.0294962 1 
511 1 27.0674 17.4429 -3.95043 0.0507342 1 
512 1 24.9559 18.1211 -2.33158 0.374581 1 
513 1 27.5178 19.1869 -1.64469 5.13369 5 
514 1 26.0497 20.1585 -3.99306 0.0796451 1 
515 1 28.5825 21.2153 -3.47668 0.44702 1 
516 1 26.4986 21.8647 -1.5671 6.2608 5 
517 1 28.9664 23.1916 -1.46125 9.35655 5 
518 1 27.557 23.9085 -3.61591 0.421956 1 
519 1 30.2691 24.9872 -2.92249 0.489355 1 
520 1 27.9824 25.7504 -1.38634 12.6542 5 
521 1 30.6167 26.5643 -0.459711 4.08062 5 
522 1 29.244 27.6127 -2.96232 0.24797 1 
523 1 31.862 28.5279 -2.36017 0.420355 1 
524 1 29.6478 29.133 -0.520512 5.7155 5 
525 1 32.379 30.4335 -0.275191 5.14617 5 
526 1 30.8541 31.1699 -2.52003 0.210055 1 
527 1 33.3989 32.2954 -2.08136 0.413017 1 
528 1 31.2568 33.079 -0.169132 5.41393 5 
529 1 33.8771 34.2185 -0.166452 10.2792 5 
530 1 32.4157 34.9654 -2.26084 0.659912 1 
531 1 35.2536 36.0572 -1.54227 1.11658 1 
532 1 33.0326 36.7895 -0.120475 7.08036 5 
533 1 34.1893 38.7136 -1.59093 1.84987 5 
534 1 36.8443 39.5749 -1.17234 5.46014 5 
535 1 36.0019 42.3417 -1.02102 5.92853 5 
536 1 38.7427 43.3539 -0.376488 8.15843 5 
537 1 37.3577 45.7966 -0.116269 9.10822 5 
538 1 40.0329 46.4828 0.0223822 11.0922 5 
539 1 39.1371 49.5309 0.0223779 9.74457 5 
540 1 15.3307 0.731383 -7.20042 0.00315636 1 
541 1 13.119 1.47125 -5.55053 0.0110826 1 
542 1 15.7499 2.46817 -4.99328 0.0259938 1 
543 1 14.3309 3.41244 -7.3096 0.00405483 1 
544 1 16.9522 4.44541 -6.73801 0.0078921 1 
545 1 14.7417 5.17307 -5.13129 0.0346742 1 
546 1 17.3479 6.22856 -4.49001 0.0956777 1 
547 1 15.9591 7.1338 -6.81656 0.0048611 1 
548 1 18.5841 8.14922 -6.21666 0.00555031 1 
549 1 16.378 8.90753 -4.58807 0.0268895 1 
550 1 19.0263 9.88826 -3.94017 0.0501464 1 
551 1 17.5883 10.8241 -6.27424 0.00379831 1 
552 1 20.2117 11.8167 -5.66461 0.00616425 1 
553 1 17.9882 12.5545 -4.03474 0.0238608 1 
554 1 20.6163 13.5391 -3.42603 0.0453712 1 
555 1 19.19 14.5059 -5.71509 0.0132491 1 
556 1 21.8197 15.4657 -5.1388 0.0117468 1 
557 1 19.5999 16.2606 -3.44812 0.17105 1 
558 1 22.2001 17.1591 -2.93088 0.459519 1 
559 1 20.7905 18.1555 -5.20856 0.018712 1 
560 1 23.4266 19.1446 -4.54965 0.132963 1 
561 1 21.1687 19.8846 -2.99809 0.433405 1 
562 1 23.894 20.9371 -2.34978 0.510599 1 
563 1 22.3963 21.834 -4.65966 0.0192629 1 
564 1 25.0227 22.8217 -4.07502 0.112787 1 
565 1 22.8058 23.5511 -2.4118 0.184989 1 
566 1 25.3564 24.5976 -1.94766 6.80359 5 
567 1 23.962 25.5279 -4.16161 0.0717919 1 
568 1 26.5861 26.6086 -3.58632 0.147736 1 
569 1 24.4538 27.2511 -1.8421 6.18285 5 
570 1 26.9578 28.3228 -1.1206 6.61717 5 
571 1 25.6248 29.2297 -3.60483 0.121957 1 
572 1 28.2124 30.1658 -3.02387 0.192456 1 
573 1 26.051 31.0431 -1.29574 2.2217 5 
574 1 28.7353 31.8428 -0.935371 5.93898 5 
575 1 27.2616 32.868 -3.20389 0.12132 1 
576 1 29.8536 33.8612 -2.60775 0.224565 1 
577 1 27.6793 34.5719 -0.835724 5.9522 5 
578 1 30.2626 35.7436 -0.566235 6.54743 5 
579 1 28.8125 36.5229 -2.83087 0.32737 1 
580 1 31.4997 37.6181 -2.32819 0.366409 1 
581 1 29.19 38.4094 -0.909144 10.3901 5 
582 1 31.6644 39.1026 -0.0152265 8.04005 5 
583 1 30.5172 40.3597 -2.24862 0.768835 1 
584 1 33.1188 41.2053 -1.51184 3.41139 5 
585 1 30.9152 41.8956 0.367101 8.98923 5 
586 1 32.0787 43.8787 -1.68547 0.427698 1 
587 1 34.7833 44.9763 -1.18774 6.28429 5 
588 1 33.7003 47.6774 -1.1681 5.29951 5 
589 1 36.3199 48.428 -0.606119 8.18066 5 
590 1 35.4938 51.204 -0.979631 11.8103 5 
591 1 37.926 52.0863 0.0521728 5.63746 5 
592 1 36.8507 54.9081 -0.0560918 6.31696 5 
593 1 10.4966 0.463233 -6.13613 0.00592156 1 
594 1 9.08911 1.3993 -8.46035 0.000845851 1 
595 1 11.7098 2.4054 -7.87915 0.00114148 1 
596 1 9.48971 3.15626 -6.24932 0.00496631 1 
597 1 12.1155 4.15674 -5.67233 0.0101568 1 
598 1 10.7051 5.09448 -7.97937 0.000746863 1 
599 1 13.3268 6.10931 -7.408 0.00346195 1 
600 1 11.1132 6.84879 -5.76924 0.0070916 1 
601 1 13.7358 7.89014 -5.21206 0.0267337 1 
602 1 12.3237 8.80564 -7.47712 0.00303228 1 
603 1 14.9536 9.82443 -6.88561 0.00351151 1 
604 1 12.7372 10.5759 -5.22867 0.0122965 1 
605 1 15.369 11.5695 -4.63414 0.00503364 1 
606 1 13.943 12.4982 -6.93592 0.00111667 1 
607 1 16.5677 13.5059 -6.32876 0.0038591 1 
608 1 14.3364 14.2446 -4.68289 0.00924841 1 
609 1 16.9659 15.243 -4.04841 0.0549191 1 
610 1 15.5478 16.1713 -6.38809 0.00219291 1 
611 1 18.168 17.1647 -5.7938 0.00498414 1 
612 1 15.9466 17.9153 -4.14386 0.00934911 1 
613 1 18.584 18.8888 -3.52959 0.235533 1 
614 1 17.1629 19.842 -5.85333 0.0119465 1 
615 1 19.7637 20.8549 -5.25441 0.0177502 1 
616 1 17.5166 21.6312 -3.62235 0.116953 1 
617 1 20.1853 22.6019 -2.97494 0.156809 1 
618 1 18.7682 23.5372 -5.30492 0.0298958 1 
619 1 21.3733 24.5032 -4.73 0.0191469 1 
620 1 19.1754 25.2881 -2.99514 0.360086 1 
621 1 21.7675 26.2046 -2.41991 0.443696 1 
622 1 20.3757 27.1532 -4.80229 0.0362655 1 
623 1 23.002 28.1642 -4.21479 0.062516 1 
624 1 20.7283 28.8772 -2.6163 0.424595 1 
625 1 23.4038 29.9474 -2.06451 0.181665 1 
626 1 21.9716 30.8149 -4.40463 0.038395 1 
627 1 24.6064 31.8419 -3.81638 0.128832 1 
628 1 22.291 32.6096 -2.29588 0.429164 1 
629 1 25.0562 33.6262 -1.76379 5.33494 5 
630 1 23.5678 34.5565 -3.92462 0.125257 1 
631 1 26.2649 35.5525 -3.37 0.153798 1 
632 1 24.1282 36.3692 -1.79386 1.81756 5 
633 1 26.6752 37.1849 -1.0564 3.19157 5 
634 1 25.2523 38.2427 -3.49492 0.0914654 1 
635 1 27.7843 39.2889 -2.97456 0.410722 1 
636 1 25.6439 39.9574 -1.26591 0.453274 1 
637 1 28.2996 41.0784 -0.70853 6.03253 5 
638 1 26.8523 41.9629 -2.95125 0.0398375 1 
639 1 29.4858 42.9598 -2.31524 0.225029 1 
640 1 27.2592 43.8055 -0.67634 4.08809 5 
641 1 29.8991 44.4957 -0.0102276 5.32382 5 
642 1 28.4389 45.6039 -2.3883 0.292095 1 
643 1 31.1471 46.5567 -1.82056 0.290708 1 
644 1 29.0068 47.2834 -0.368426 7.20624 5 
645 1 30.1124 49.3403 -1.80913 0.448402 1 
646 1 32.7682 50.4331 -0.903938 8.69644 5 
647 1 31.5536 53.0053 -1.4503 6.55721 5 
648 1 34.2987 53.7734 -0.705504 6.49722 5 
649 1 33.4245 56.5796 -0.721708 11.4836 5 
650 1 36.1149 57.598 0.0906637 11.4294 5 
651 1 34.8916 60.2868 -0.441044 8.14553 5 
652 1 37.3964 61.534 0.362039 8.94173 5 
653 1 36.3398 64.1779 -0.024603 11.2001 5 
654 1 6.46631 0.394363 -9.04382 0.000647904 1 
655 1 4.24397 1.13979 -7.40265 0.00140151 1 
656 1 6.86238 2.14219 -6.83785 0.00616897 1 
657 1 5.4583 3.081 -9.13986 0.000456599 1 
658 1 8.08255 4.08691 -8.55904 0.000372677 1 
659 1 5.86501 4.83518 -6.92461 0.00407636 1 
660 1 8.48681 5.84196 -6.34071 0.00298748 1 
661 1 7.07866 6.77333 -8.64478 0.000364232 1 
662 1 9.70086 7.78336 -8.06079 0.000651154 1 
663 1 7.48379 8.51806 -6.41375 0.00293709 1 
664 1 10.1077 9.53875 -5.83325 0.0057407 1 
665 1 8.69425 10.4638 -8.12993 0.000716742 1 
666 1 11.319 11.4825 -7.53499 0.00140091 1 
667 1 9.09462 12.2031 -5.88627 0.00278198 1 
668 1 11.718 13.233 -5.28047 0.00601142 1 
669 1 10.307 14.149 -7.59953 0.00099408 1 
670 1 12.9264 15.1662 -6.99659 0.00161285 1 
671 1 10.7003 15.8788 -5.34096 0.0170061 1 
672 1 13.3041 16.9144 -4.74231 0.0178608 1 
673 1 11.9158 17.8331 -7.06846 0.00371054 1 
674 1 14.5341 18.8408 -6.46698 0.00142041 1 
675 1 12.3142 19.5929 -4.80868 0.057103 1 
676 1 14.9313 20.5961 -4.23506 0.0252584 1 
677 1 13.5259 21.5128 -6.55613 0.00114959 1 
678 1 16.1493 22.5242 -5.94792 0.00650103 1 
679 1 13.9355 23.2664 -4.30911 0.0346467 1 
680 1 16.537 24.2676 -3.6641 0.0574775 1 
681 1 15.1372 25.1858 -6.03706 0.00565528 1 
682 1 17.7543 26.1778 -5.41886 0.0104758 1 
683 1 15.5103 26.9392 -3.80761 0.0323355 1 
684 1 18.1495 27.9168 -3.1721 0.368289 1 
685 1 16.7398 28.841 -5.53692 0.010653 1 
686 1 19.3494 29.8265 -4.98405 0.0219457 1 
687 1 17.1273 30.5648 -3.33312 0.193975 1 
688 1 19.7711 31.5418 -2.80834 0.226685 1 
689 1 18.3386 32.5211 -5.08282 0.0115824 1 
690 1 20.9323 33.5249 -4.54936 0.0571611 1 
691 1 18.7331 34.2785 -2.82379 0.215976 1 
692 1 21.2516 35.3203 -2.41752 0.738057 1 
693 1 19.9343 36.234 -4.63762 0.0585592 1 
694 1 22.5819 37.2426 -4.02569 0.0849905 1 
695 1 20.3255 38.0164 -2.39411 0.392646 1 
696 1 23.099 39.0272 -1.86936 0.766386 1 
697 1 21.585 39.9039 -4.12139 0.0381754 1 
698 1 24.2215 40.9306 -3.57317 0.0396101 1 
699 1 21.9973 41.6069 -1.883 0.578359 1 
700 1 24.6681 42.6181 -1.38389 0.571861 1 