ITEM: TIMESTEP
0
ITEM: NUMBER OF ATOMS
16184
ITEM: BOX BOUNDS xy xz yz pp pp ss
-150.389007361 71.766182844 -150.389007361
0 126.599512104 0
-87.59787214891122 86.5524928402543 0
ITEM: ATOMS id type x y z c_csym c_cna 
1 1 -0.67944 1.43638 -8.77815 0.00263169 1 
3 1 -0.8111 3.12803 -6.46695 0.0233852 1 
4 1 -0.929642 4.824 -4.13118 0.543358 5 
5 1 -0.218525 8.76634 -3.36852 0.338017 1 
7 1 -1.90369 2.64387 -2.72205 1.59005 5 
8 1 -0.381755 2.12056 -0.70098 6.98871 5 
9 1 -2.14685 4.28894 -0.273331 4.74104 5 
10 1 -1.13756 6.48802 -1.95155 6.4349 5 
11 1 -0.149456 10.4143 -0.796367 8.19143 5 
40 1 -1.34718 4.37805 -12.7153 0.000139099 1 
41 1 -0.544867 6.62525 -14.3042 5.81711e-05 1 
42 1 -2.9396 6.75639 -12.7469 0.00017652 1 
43 1 -2.13916 9.00337 -14.3336 7.1764e-05 1 
44 1 -0.658798 8.30728 -11.9856 0.000131915 1 
45 1 -2.25172 10.6855 -12.0134 0.00018652 1 
46 1 -1.45309 12.9318 -13.6005 0.000105593 1 
47 1 -1.56516 14.6114 -11.2778 0.000317123 1 
48 1 -0.769095 16.8593 -12.8631 0.000172085 1 
49 1 -0.880645 18.5349 -10.5368 0.000352262 1 
50 1 -0.202925 22.4565 -9.79435 0.000842561 1 
52 1 -2.15164 2.12804 -11.1283 0.000275331 1 
54 1 -3.74301 4.50697 -11.1637 0.000296905 1 
55 1 -2.27215 3.81713 -8.81385 0.001562 1 
56 1 -1.46218 6.06329 -10.3961 0.000437421 1 
57 1 -3.85793 6.1964 -8.84558 0.00125243 1 
58 1 -3.05259 8.44307 -10.425 0.000721176 1 
59 1 -1.57783 7.74946 -8.07378 0.00181768 1 
60 1 -0.772163 9.98853 -9.66483 0.000588111 1 
61 1 -3.16497 10.1365 -8.09328 0.00570519 1 
62 1 -2.36295 12.367 -9.68858 0.000735075 1 
63 1 -0.881087 11.6684 -7.34213 0.00461024 1 
64 1 -2.46973 14.0429 -7.35677 0.00477402 1 
65 1 -1.67339 16.2871 -8.9486 0.000719456 1 
66 1 -0.179207 15.5837 -6.61794 0.00629446 1 
67 1 -1.77497 17.9551 -6.61433 0.00993066 1 
68 1 -0.989349 20.2049 -8.20969 0.00267302 1 
69 1 -1.08039 21.8531 -5.8772 0.0354623 1 
75 1 -3.26684 3.2582 -4.97654 0.109591 1 
76 1 -2.39107 5.51165 -6.48706 0.0147 1 
77 1 -4.81191 5.64028 -4.96743 0.0198695 1 
78 1 -3.97785 7.89497 -6.52708 0.00694579 1 
79 1 -2.54503 7.23023 -4.18224 0.100138 1 
80 1 -1.68967 9.43937 -5.75395 0.0182481 1 
81 1 -4.07201 9.60425 -4.171 0.0758823 1 
82 1 -3.26694 11.837 -5.73129 0.0546248 1 
83 1 -1.74062 11.1234 -3.44258 0.282617 1 
84 1 -0.973619 13.3522 -5.02065 0.0396249 1 
85 1 -3.38013 13.5452 -3.30206 4.59342 5 
86 1 -2.58282 15.6885 -5.01326 0.0858829 1 
87 1 -1.02743 15.0493 -2.70486 4.46233 5 
88 1 -0.26078 17.2575 -4.33459 0.119122 1 
89 1 -2.5547 17.3154 -2.71242 4.68518 5 
90 1 -1.83036 19.6304 -4.25591 0.107979 1 
91 1 -0.111697 19.0391 -2.06523 10.4571 5 
92 1 -1.88997 21.3192 -1.82417 3.04222 5 
93 1 -1.15227 23.4788 -3.63045 0.364419 1 
101 1 -3.43867 4.96279 -2.62808 0.238916 1 
102 1 -5.74254 5.05547 -0.980034 6.42685 5 
103 1 -4.92927 7.36176 -2.64646 0.162367 1 
104 1 -3.37992 6.84001 -0.417411 9.3749 5 
105 1 -2.52134 9.04435 -1.7727 6.51395 5 
106 1 -4.97328 9.19024 -0.415142 6.05574 5 
107 1 -4.19908 11.3547 -1.87257 0.99459 5 
108 1 -1.62751 12.7446 -1.22903 9.90234 5 
109 1 -3.85466 13.4717 -0.0397632 8.84815 5 
110 1 -2.32755 15.8468 -0.0936297 12.116 5 
111 1 -2.22804 18.9039 -0.447849 7.82065 5 
249 1 -1.57412 21.4855 -14.4572 0.000134061 1 
251 1 -3.17507 23.8612 -14.4658 0.000179537 1 
267 1 -5.22124 5.20092 -13.5124 0.000106483 1 
269 1 -6.81427 7.58025 -13.5454 0.000125116 1 
271 1 -4.53203 9.13496 -12.7772 0.000188332 1 
272 1 -3.73368 11.3824 -14.3607 9.37599e-05 1 
273 1 -6.12489 11.5133 -12.8053 0.000209682 1 
274 1 -5.32856 13.7615 -14.3845 0.000126823 1 
275 1 -3.84464 13.064 -12.037 0.000245642 1 
276 1 -3.04881 15.311 -13.6204 0.000139986 1 
277 1 -5.43819 15.4412 -12.0564 0.000347641 1 
278 1 -4.64531 17.6892 -13.6359 0.000192823 1 
279 1 -3.16008 16.9882 -11.291 0.000329851 1 
280 1 -2.36773 19.2366 -12.8746 0.000196756 1 
281 1 -4.75733 19.3634 -11.2998 0.000516714 1 
282 1 -3.96788 21.6124 -12.8827 0.000283235 1 
283 1 -2.48234 20.9085 -10.5416 0.000619268 1 
284 1 -1.69206 23.159 -12.127 0.000305089 1 
285 1 -4.08583 23.2799 -10.5426 0.000705254 1 
286 1 -3.29532 25.5327 -12.1298 0.000382977 1 
307 1 -5.33281 6.8865 -11.1968 0.000308992 1 
308 1 -7.72589 7.01257 -9.65579 0.000484297 1 
309 1 -6.9236 9.26593 -11.2278 0.000441521 1 
310 1 -5.44465 8.57693 -8.877 0.00115927 1 
311 1 -4.64254 10.8201 -10.4531 0.00063046 1 
312 1 -7.03247 10.9546 -8.90079 0.00240414 1 
313 1 -6.23308 13.195 -10.4781 0.000621898 1 
314 1 -4.75156 12.5025 -8.11751 0.00281377 1 
315 1 -3.95375 14.7422 -9.70529 0.000695676 1 
316 1 -6.33981 14.8697 -8.14071 0.00379565 1 
317 1 -5.54546 17.1149 -9.71835 0.00131803 1 
318 1 -4.05804 16.4108 -7.36148 0.00365952 1 
319 1 -3.26919 18.658 -8.95373 0.00113444 1 
320 1 -5.6464 18.7749 -7.36374 0.00996387 1 
321 1 -4.8692 21.0277 -8.95299 0.00156181 1 
322 1 -3.37027 20.3163 -6.60673 0.00690048 1 
323 1 -2.59664 22.5701 -8.20268 0.00240427 1 
324 1 -4.98478 22.674 -6.59369 0.0094088 1 
325 1 -4.20878 24.9367 -8.20203 0.00319127 1 
326 1 -2.72025 24.2162 -5.87307 0.0315705 1 
328 1 -4.34309 26.5981 -5.8817 0.0590466 1 
350 1 -6.25622 6.32177 -7.30894 0.00258606 1 
352 1 -7.8381 8.70091 -7.34346 0.00193911 1 
353 1 -6.37184 8.01726 -4.9969 0.0131601 1 
354 1 -5.55278 10.2719 -6.54295 0.00630962 1 
355 1 -7.96855 10.3875 -5.03729 0.0113046 1 
356 1 -7.14975 12.6491 -6.55822 0.0176137 1 
357 1 -5.67692 11.9744 -4.21548 0.0444082 1 
358 1 -4.85845 14.1735 -5.77219 0.0271925 1 
359 1 -7.28195 14.3431 -4.18141 0.390561 1 
360 1 -6.43612 16.5097 -5.78257 0.0346125 1 
361 1 -4.95559 15.8272 -3.3633 6.64245 5 
362 1 -4.132 18.0704 -5.00921 0.039947 1 
363 1 -6.52265 18.09 -3.48946 0.938875 5 
364 1 -5.7347 20.4191 -4.98245 0.131101 1 
365 1 -4.16866 19.7299 -2.64892 1.5133 5 
366 1 -3.4718 21.929 -4.25084 0.175109 1 
367 1 -5.80436 22.0229 -2.45798 3.674 5 
368 1 -5.12991 24.3319 -4.26989 0.44328 1 
369 1 -3.52735 23.6443 -2.14144 10.0636 5 
371 1 -4.87849 26.2715 -1.92309 7.62746 5 
391 1 -8.77442 8.11816 -3.47744 0.0790823 1 
392 1 -7.33469 7.45996 -1.19831 6.48768 5 
393 1 -6.5045 9.71965 -2.72674 0.156703 1 
394 1 -9.07613 9.7615 -1.16472 6.34401 5 
395 1 -8.14154 12.0559 -2.74934 0.20905 1 
396 1 -6.85174 11.2608 -0.461683 9.00048 5 
397 1 -5.88285 13.6566 -1.83285 6.45767 5 
398 1 -8.30447 13.7921 -0.521364 11.0048 5 
399 1 -7.17243 16.2306 -1.35359 10.4787 5 
400 1 -4.70043 17.5501 -1.03475 7.88321 5 
401 1 -6.67652 19.5238 -1.20637 8.55351 5 
402 1 -4.38527 20.4293 0.118434 11.5145 5 
403 1 -5.07549 24.3153 -0.103036 9.34804 5 
764 1 -4.77444 26.2362 -14.4729 0.000217263 1 
766 1 -6.37111 28.61 -14.4807 0.000241304 1 
806 1 -8.40811 9.95927 -13.5769 0.000138558 1 
808 1 -10.0032 12.3381 -13.6062 0.000138009 1 
810 1 -7.71883 13.8911 -12.8306 0.000238549 1 
811 1 -6.92418 16.1402 -14.405 0.000172845 1 
812 1 -9.31415 16.2688 -12.8527 0.000273944 1 
813 1 -8.52044 18.5186 -14.4222 0.000264407 1 
814 1 -7.03339 17.8175 -12.0722 0.000478 1 
815 1 -6.2428 20.0665 -13.6478 0.000303899 1 
816 1 -8.62974 20.1945 -12.0836 0.000756651 1 
817 1 -7.8398 22.4432 -13.6571 0.0004545 1 
818 1 -6.35626 21.7383 -11.3041 0.000806399 1 
819 1 -5.56751 23.9876 -12.8876 0.0003928 1 
820 1 -7.95316 24.1141 -11.3058 0.00125337 1 
821 1 -7.16415 26.3623 -12.8922 0.000507423 1 
822 1 -5.68786 25.6548 -10.54 0.0011629 1 
824 1 -7.28202 28.0293 -10.5365 0.0015656 1 
855 1 -72.7464 61.6811 -6.37709 0.00578786 1 
867 1 -10.8021 10.0865 -12.0354 0.000148795 1 
868 1 -9.3159 9.39202 -9.69048 0.000539735 1 
869 1 -8.51575 11.6426 -11.2581 0.000437321 1 
870 1 -10.9108 11.77 -9.72249 0.000374765 1 
871 1 -10.1107 14.0192 -11.2863 0.000318994 1 
872 1 -8.62452 13.3241 -8.93341 0.00182289 1 
873 1 -7.82606 15.5688 -10.501 0.000754051 1 
874 1 -10.2202 15.6957 -8.95982 0.00165889 1 
875 1 -9.42158 17.943 -10.5193 0.000572954 1 
876 1 -7.9301 17.2321 -8.16194 0.00385577 1 
877 1 -7.14175 19.4861 -9.72854 0.0016764 1 
878 1 -9.53508 19.6041 -8.18071 0.00242996 1 
879 1 -8.73924 21.8632 -9.73161 0.00327559 1 
880 1 -7.24921 21.1387 -7.37249 0.0123912 1 
881 1 -6.47231 23.4007 -8.94758 0.0026576 1 
882 1 -8.84436 23.5179 -7.35461 0.0201499 1 
883 1 -8.0698 25.778 -8.93838 0.00501226 1 
884 1 -6.59792 25.0566 -6.58236 0.0217584 1 
885 1 -5.8139 27.3188 -8.18672 0.00734417 1 
886 1 -8.17936 27.431 -6.53408 0.0233693 1 
921 1 -73.5088 62.9549 -0.442993 8.96561 5 
933 1 -10.2344 8.8219 -5.8113 0.00392904 1 
934 1 -9.42941 11.0785 -7.37701 0.00254847 1 
935 1 -11.8253 11.2055 -5.84919 0.00489187 1 
936 1 -11.0262 13.4525 -7.40287 0.00170491 1 
937 1 -9.56062 12.7656 -5.05925 0.0208662 1 
938 1 -8.74092 14.9983 -6.60079 0.0138069 1 
939 1 -11.1541 15.1265 -5.0616 0.0193237 1 
940 1 -10.3286 17.3472 -6.61426 0.0130076 1 
941 1 -8.85093 16.6396 -4.20849 0.417929 1 
942 1 -8.03936 18.8606 -5.84255 0.0425811 1 
943 1 -10.4807 18.9878 -4.31606 0.0769876 1 
944 1 -9.65715 21.2532 -5.84124 0.0293869 1 
945 1 -8.13788 20.4319 -3.58087 0.526485 1 
946 1 -7.34949 22.752 -4.98195 0.135173 1 
947 1 -9.76437 22.8846 -3.47623 0.422185 1 
948 1 -8.93524 25.1562 -4.94818 0.0881046 1 
949 1 -7.38908 24.3071 -2.57639 3.74345 5 
950 1 -6.68804 26.698 -4.14958 0.337197 1 
951 1 -9.07653 26.7788 -2.53944 2.22893 5 
952 1 -8.30116 29.0728 -4.08794 0.245193 1 
953 1 -6.79676 28.4015 -1.75689 5.27416 5 
979 1 -10.3775 10.5284 -3.49734 0.104881 1 
981 1 -11.9238 12.8967 -3.50572 0.0658171 1 
982 1 -10.434 12.1635 -1.02932 7.16915 5 
983 1 -9.69928 14.4752 -2.70057 0.644015 1 
984 1 -12.098 14.4819 -1.15073 5.96725 5 
985 1 -11.3126 16.7688 -2.65543 0.233276 1 
986 1 -9.97723 15.9581 -0.206601 7.50096 5 
987 1 -9.01533 18.2867 -1.97502 6.35239 5 
988 1 -11.2015 18.5363 -0.34732 10.0598 5 
989 1 -10.6715 20.6545 -2.00612 6.83509 5 
990 1 -8.3892 21.7128 -1.29656 11.3059 5 
991 1 -9.73155 24.4668 -1.0269 7.02004 5 
992 1 -7.2746 25.9667 -0.425755 6.88296 5 
993 1 -9.60565 27.2015 0.271152 9.94479 5 
1651 1 -73.3349 62.9262 -12.6357 7.39392e-05 1 
1757 1 -12.2908 10.7836 -14.3782 7.71868e-05 1 
1759 1 -13.8881 13.1631 -14.4081 9.591e-05 1 
1761 1 -11.5994 14.717 -13.6329 0.000158772 1 
1763 1 -13.196 17.0955 -13.657 0.00022413 1 
1765 1 -10.91 18.6466 -12.8715 0.000326463 1 
1766 1 -10.1167 20.8964 -14.4372 0.000381578 1 
1767 1 -12.5061 21.0244 -12.8885 0.000478201 1 
1768 1 -11.7126 23.2727 -14.4525 0.000489446 1 
1769 1 -10.2251 22.5714 -12.0933 0.00112815 1 
1770 1 -9.43515 24.8183 -13.6672 0.000547294 1 
1771 1 -11.8189 24.9457 -12.1056 0.00132783 1 
1772 1 -11.0296 27.1914 -13.6806 0.000621043 1 
1773 1 -9.54608 26.4873 -11.3116 0.00137702 1 
1774 1 -8.75764 28.7346 -12.9006 0.000502145 1 
1775 1 -11.1371 28.8577 -11.3239 0.00152245 1 
1776 1 -10.3503 31.105 -12.9158 0.000494013 1 
1777 1 -8.87087 30.3982 -10.5422 0.000985344 1 
1843 1 -12.3982 12.4652 -12.0666 0.000159739 1 
1844 1 -14.7955 12.5908 -10.5309 0.000260365 1 
1845 1 -13.995 14.8433 -12.0949 0.000216885 1 
1846 1 -12.5066 14.1455 -9.75117 0.000490688 1 
1847 1 -11.7065 16.3961 -11.31 0.000450067 1 
1848 1 -14.1017 16.5194 -9.77698 0.000668347 1 
1849 1 -13.3016 18.7722 -11.3315 0.000530999 1 
1850 1 -11.8141 18.0671 -8.97564 0.00143284 1 
1851 1 -11.018 20.3198 -10.5346 0.000624641 1 
1852 1 -13.4092 20.4424 -8.99992 0.0013363 1 
1853 1 -12.6124 22.6981 -10.5465 0.00125519 1 
1854 1 -11.1283 21.986 -8.18816 0.00234068 1 
1855 1 -10.3321 24.2393 -9.73267 0.00412359 1 
1856 1 -12.7195 24.3646 -8.18847 0.0044998 1 
1857 1 -11.9224 26.6102 -9.74432 0.00356009 1 
1858 1 -10.4368 25.8944 -7.34733 0.0130816 1 
1859 1 -9.65405 28.1462 -8.93714 0.00412769 1 
1860 1 -12.0256 28.2618 -7.37068 0.00929673 1 
1861 1 -11.2434 30.5144 -8.95594 0.00366359 1 
1862 1 -9.7573 29.7904 -6.54563 0.015749 1 
1864 1 -11.3575 32.1629 -6.58818 0.0097825 1 
1917 1 -13.3072 11.8967 -8.19007 0.00103917 1 
1919 1 -14.9027 14.2683 -8.21814 0.00112444 1 
1920 1 -13.4223 13.5748 -5.86095 0.00464162 1 
1921 1 -12.6186 15.8173 -7.42566 0.00276931 1 
1922 1 -15.011 15.9336 -5.89238 0.010038 1 
1923 1 -14.2111 18.1839 -7.45138 0.00190423 1 
1924 1 -12.7384 17.4635 -5.08278 0.0152084 1 
1925 1 -11.9357 19.733 -6.63576 0.00914241 1 
1926 1 -14.3268 19.8284 -5.12376 0.0170897 1 
1927 1 -13.5218 22.1046 -6.65719 0.00887234 1 
1928 1 -12.069 21.4093 -4.2687 0.150869 1 
1929 1 -11.2424 23.6343 -5.82723 0.0129816 1 
1930 1 -13.6462 23.7322 -4.26389 0.189427 1 
1931 1 -12.8367 26.0141 -5.80584 0.0292871 1 
1932 1 -11.3642 25.2197 -3.4834 0.433403 1 
1933 1 -10.5505 27.5267 -4.94694 0.0481836 1 
1934 1 -12.969 27.6649 -3.41246 0.607117 1 
1935 1 -12.1162 29.8853 -4.97486 0.07886 1 
1936 1 -10.6688 29.1051 -2.4392 2.54535 5 
1937 1 -9.84189 31.4345 -4.17644 0.146432 1 
1938 1 -12.2227 31.4936 -2.69299 0.802986 1 
1970 1 -15.8267 13.6986 -4.32681 0.0403597 1 
1971 1 -14.3593 12.9642 -2.03639 0.317831 1 
1972 1 -13.549 15.2262 -3.49931 0.051564 1 
1973 1 -15.9804 15.3813 -1.94604 1.11644 5 
1974 1 -15.1001 17.556 -3.53059 0.137234 1 
1975 1 -13.6559 16.8325 -1.00753 2.7231 5 
1976 1 -12.862 19.0952 -2.74684 0.17137 1 
1977 1 -15.1957 19.1632 -1.25714 1.3923 5 
1978 1 -14.4605 21.4491 -2.78964 0.378243 1 
1979 1 -12.887 20.8739 -0.438202 5.99272 5 
1980 1 -12.1369 23.2211 -1.69245 4.26966 5 
1981 1 -14.7873 22.9602 -0.564179 7.71552 5 
1982 1 -13.9612 25.3481 -1.98127 6.56723 5 
1983 1 -11.7461 26.6322 -1.19024 11.7172 5 
1984 1 -12.9673 29.234 -0.51402 10.8212 5 
1985 1 -10.6315 31.0484 -0.334932 10.3978 5 
1986 1 -12.3871 33.2477 -0.536792 9.30388 5 
3161 1 -15.486 15.5424 -14.4358 0.000130411 1 
3163 1 -17.0851 17.9218 -14.4616 0.000177625 1 
3165 1 -14.7933 19.474 -13.6792 0.000289185 1 
3167 1 -16.3925 21.852 -13.7011 0.000343664 1 
3169 1 -14.1026 23.4005 -12.9067 0.000598262 1 
3170 1 -13.3089 25.6472 -14.4699 0.00057707 1 
3171 1 -15.7008 25.7755 -12.9272 0.000693011 1 
3172 1 -14.9067 28.0201 -14.4914 0.000580042 1 
3173 1 -13.4135 27.3182 -12.1232 0.00146593 1 
3174 1 -12.6245 29.5627 -13.6998 0.000676854 1 
3175 1 -15.0117 29.6894 -12.1498 0.00130953 1 
3176 1 -14.2227 31.9335 -13.7269 0.000657796 1 
3177 1 -12.731 31.2275 -11.3487 0.00153323 1 
3179 1 -14.3318 33.5992 -11.3863 0.00143021 1 
3259 1 -17.8859 15.6683 -12.8992 0.000208277 1 
3260 1 -16.393 14.9677 -10.5613 0.000355492 1 
3261 1 -15.5922 17.221 -12.1218 0.000332821 1 
3262 1 -17.9925 17.3446 -10.5934 0.000660209 1 
3263 1 -17.1915 19.6 -12.1472 0.000421898 1 
3264 1 -15.6974 18.8942 -9.80516 0.00100765 1 
3265 1 -14.8989 21.1503 -11.3526 0.000669735 1 
3266 1 -17.2982 21.2745 -9.83055 0.00131584 1 
3267 1 -16.4982 23.5271 -11.3748 0.000785382 1 
3268 1 -15.0055 22.821 -9.01773 0.00213117 1 
3269 1 -14.2066 25.0711 -10.5648 0.00135286 1 
3270 1 -16.6036 25.1941 -9.0438 0.00231199 1 
3271 1 -15.8049 27.4448 -10.5883 0.00155531 1 
3272 1 -14.3102 26.7297 -8.21443 0.00423325 1 
3273 1 -13.5165 28.9822 -9.76684 0.00385502 1 
3274 1 -15.9092 29.1087 -8.24697 0.00403115 1 
3275 1 -15.1159 31.3518 -9.80467 0.00392787 1 
3276 1 -13.6178 30.6375 -7.39585 0.0194615 1 
3277 1 -12.8407 32.8863 -8.99608 0.00354923 1 
3278 1 -15.2333 33.0097 -7.47176 0.0057964 1 
3279 1 -14.4469 35.2646 -9.05147 0.0026267 1 
3340 1 -16.4984 16.6412 -8.2484 0.00167153 1 
3341 1 -18.9027 16.7683 -6.74075 0.00501718 1 
3342 1 -18.0973 19.0125 -8.29064 0.00458436 1 
3343 1 -16.6038 18.3015 -5.91717 0.0164979 1 
3344 1 -15.8044 20.5572 -7.4862 0.00518279 1 
3345 1 -18.2116 20.6634 -6.0103 0.0366872 1 
3346 1 -17.4099 22.9455 -7.50865 0.00700569 1 
3347 1 -15.9165 22.2122 -5.16874 0.0362396 1 
3348 1 -15.1139 24.4777 -6.66411 0.0115268 1 
3349 1 -17.5376 24.6058 -5.16509 0.0735648 1 
3350 1 -16.716 26.8492 -6.72229 0.00832386 1 
3351 1 -15.2523 26.1337 -4.33567 0.117386 1 
3352 1 -14.4173 28.379 -5.86942 0.0178327 1 
3353 1 -16.822 28.4752 -4.39146 0.113026 1 
3354 1 -16.0189 30.7553 -5.89437 0.0251428 1 
3355 1 -14.5095 29.9865 -3.50467 0.494375 1 
3356 1 -13.751 32.3071 -5.04626 0.0645371 1 
3357 1 -16.1674 32.4407 -3.61621 0.157196 1 
3358 1 -15.3671 34.6864 -5.16506 0.038926 1 
3359 1 -13.9756 34.0214 -2.65633 5.97425 5 
3397 1 -17.4169 16.0475 -4.41353 0.0566276 1 
3399 1 -19.0224 18.439 -4.42583 0.0560429 1 
3400 1 -17.5113 17.7181 -2.18825 1.75888 5 
3401 1 -16.7225 19.9843 -3.61068 0.15918 1 
3402 1 -19.1828 20.1832 -2.12306 1.18937 5 
3403 1 -18.3373 22.2847 -3.77445 0.459595 1 
3404 1 -17.0609 21.5958 -1.14942 5.15111 5 
3405 1 -16.1009 23.8237 -2.83441 0.289584 1 
3406 1 -18.5366 23.9614 -1.67066 10.7655 5 
3407 1 -17.6027 26.3028 -2.80458 0.476296 1 
3408 1 -16.1762 25.5739 -0.267246 12.8556 5 
3409 1 -15.2746 27.8116 -1.81282 6.09028 5 
3410 1 -17.8586 27.9432 -0.449203 8.51686 5 
3411 1 -16.925 30.0539 -2.15064 1.46061 5 
3412 1 -14.5825 31.6376 -1.32035 4.01374 5 
3413 1 -16.5441 34.1865 -1.29111 6.62038 5 
3428 1 -19.9175 17.9494 -0.827919 7.1125 5 
5015 1 -18.6862 20.3012 -14.4858 0.00021068 1 
5017 1 -20.2894 22.6802 -14.5083 0.000228575 1 
5019 1 -17.9938 24.2292 -13.7232 0.000386252 1 
5021 1 -19.5977 26.6051 -13.7465 0.000364813 1 
5023 1 -17.3023 28.1491 -12.9523 0.000665745 1 
5024 1 -16.5078 30.3923 -14.5181 0.000522117 1 
5025 1 -18.9083 30.5222 -12.9823 0.00052745 1 
5026 1 -18.1128 32.765 -14.549 0.000434067 1 
5027 1 -16.6153 32.0612 -12.1843 0.00118515 1 
5028 1 -15.8256 34.3058 -13.7605 0.000575349 1 
5029 1 -18.2259 34.4367 -12.2237 0.000697235 1 
5030 1 -17.4322 36.68 -13.798 0.00041465 1 
5031 1 -15.9395 35.9758 -11.4298 0.00101496 1 
5116 1 -19.4875 18.0481 -12.9278 0.000303878 1 
5118 1 -21.0922 20.429 -12.9527 0.000338569 1 
5119 1 -19.5964 19.7243 -10.6244 0.000918815 1 
5120 1 -18.7944 21.9795 -12.1712 0.00048481 1 
5121 1 -21.2057 22.1079 -10.6485 0.000870018 1 
5122 1 -20.4 24.3588 -12.1935 0.000498734 1 
5123 1 -18.9038 23.6551 -9.85609 0.00131014 1 
5124 1 -18.1008 25.9039 -11.3983 0.000853695 1 
5125 1 -20.5131 26.0349 -9.87922 0.0011287 1 
5126 1 -19.7081 28.2794 -11.4251 0.000646629 1 
5127 1 -18.2103 27.5743 -9.0738 0.00164982 1 
5128 1 -17.4092 29.8183 -10.6209 0.00122066 1 
5129 1 -19.8206 29.9488 -9.10462 0.00164755 1 
5130 1 -19.0198 32.1911 -10.6603 0.00114687 1 
5131 1 -17.5186 31.4803 -8.29084 0.00357859 1 
5132 1 -16.7277 33.7277 -9.85713 0.00190174 1 
5133 1 -19.1381 33.8609 -8.35276 0.00329877 1 
5134 1 -18.3454 36.1118 -9.90442 0.00129556 1 
5135 1 -16.8487 35.4006 -7.54299 0.00348785 1 
5137 1 -18.4763 37.7963 -7.58744 0.00472689 1 
5200 1 -20.4022 17.4693 -9.07224 0.0012084 1 
5202 1 -22.0122 19.8489 -9.10643 0.00234899 1 
5203 1 -20.5166 19.1354 -6.78903 0.00631327 1 
5204 1 -19.7098 21.3973 -8.32818 0.00327542 1 
5205 1 -22.1348 21.5239 -6.83306 0.0115097 1 
5206 1 -21.3241 23.788 -8.34713 0.00303238 1 
5207 1 -19.8375 23.071 -6.03767 0.0185011 1 
5208 1 -19.0179 25.3246 -7.54012 0.00436232 1 
5209 1 -21.4564 25.4743 -6.04498 0.0260351 1 
5210 1 -20.6327 27.7064 -7.56909 0.00484795 1 
5211 1 -19.129 26.9917 -5.24058 0.0473504 1 
5212 1 -18.3164 29.2388 -6.74507 0.0112536 1 
5213 1 -20.7562 29.3638 -5.27548 0.0462426 1 
5214 1 -19.9363 31.6138 -6.79164 0.0101224 1 
5215 1 -18.4496 30.8767 -4.40098 0.129347 1 
5216 1 -17.6469 33.1451 -5.98279 0.00883346 1 
5217 1 -20.0571 33.3173 -4.51978 0.0224935 1 
5218 1 -19.2638 35.549 -6.06825 0.0165109 1 
5219 1 -17.7917 34.8722 -3.70821 0.12141 1 
5220 1 -16.9764 37.0845 -5.23358 0.0162065 1 
5221 1 -19.3958 37.2264 -3.77388 0.189393 1 
5266 1 -21.4441 18.59 -3.02216 0.185522 1 
5267 1 -20.6505 20.7973 -4.54435 0.0705692 1 
5268 1 -23.0736 20.9578 -2.9758 0.900369 1 
5269 1 -22.2639 23.2103 -4.56891 0.108327 1 
5270 1 -20.7873 22.4693 -2.38594 5.78925 5 
5271 1 -19.9657 24.802 -3.77516 0.359581 1 
5272 1 -22.2567 24.9246 -2.25172 6.7032 5 
5273 1 -21.5687 27.1459 -3.70372 0.172664 1 
5274 1 -19.9974 26.3416 -1.18711 6.76766 5 
5275 1 -19.3079 28.5405 -2.94811 0.573662 1 
5276 1 -21.8652 28.7983 -1.41202 8.39526 5 
5277 1 -20.8766 31.083 -3.04531 0.357466 1 
5278 1 -19.4069 30.3125 -0.970639 11.66 5 
5279 1 -18.5559 32.6245 -2.16831 0.934557 5 
5280 1 -20.7616 32.7952 -0.554367 6.49567 5 
5281 1 -20.2095 35.0309 -2.24983 4.53403 5 
5282 1 -17.8703 36.7643 -1.30338 5.64771 5 
5283 1 -19.7327 38.8507 -1.52026 6.13387 5 
5303 1 -21.7377 20.0659 -0.679374 7.74295 5 
5304 1 -22.7995 22.8739 -0.602547 11.555 5 
7258 1 -21.8944 25.0578 -14.5296 0.000219183 1 
7260 1 -23.5013 27.4332 -14.5503 0.000190519 1 
7262 1 -21.2047 28.9793 -13.7716 0.000280892 1 
7264 1 -22.8144 31.3528 -13.7972 0.000231294 1 
7266 1 -20.5186 32.8962 -13.0144 0.000403131 1 
7267 1 -19.7212 35.1389 -14.5824 0.000282322 1 
7268 1 -22.1315 35.2719 -13.0458 0.000282556 1 
7269 1 -21.3305 37.5137 -14.6155 0.000180827 1 
7270 1 -19.8386 36.8141 -12.2625 0.000425703 1 
7271 1 -19.0399 39.0551 -13.8362 0.000271674 1 
7272 1 -21.4497 39.1915 -12.298 0.000278866 1 
7362 1 -24.994 21.2587 -13.7387 0.000287594 1 
7363 1 -23.5044 20.5577 -11.419 0.000755378 1 
7364 1 -22.6986 22.81 -12.9729 0.000363042 1 
7365 1 -25.1116 22.9414 -11.431 0.000770511 1 
7366 1 -24.3054 25.1884 -12.9892 0.000343255 1 
7367 1 -22.8151 24.4908 -10.6641 0.00103487 1 
7368 1 -22.0079 26.7357 -12.2145 0.00044613 1 
7369 1 -24.4236 26.8667 -10.6747 0.00086383 1 
7370 1 -23.6178 29.109 -12.2353 0.000399919 1 
7371 1 -22.1253 28.4101 -9.90067 0.00132369 1 
7372 1 -21.3189 30.6522 -11.4545 0.000570275 1 
7373 1 -23.7386 30.7796 -9.92385 0.00109789 1 
7374 1 -22.9335 33.0265 -11.4843 0.000494625 1 
7375 1 -21.4374 32.3207 -9.14631 0.00197445 1 
7376 1 -20.6376 34.5706 -10.6997 0.000796244 1 
7377 1 -23.0608 34.7029 -9.1809 0.00193155 1 
7378 1 -22.2548 36.9511 -10.7328 0.000584029 1 
7379 1 -20.7669 36.2536 -8.39186 0.00341337 1 
7380 1 -19.9617 38.4929 -9.94638 0.000760716 1 
7381 1 -22.3852 38.6372 -8.42087 0.00197751 1 
7382 1 -21.5724 40.8726 -9.98265 0.000568379 1 
7383 1 -20.0953 40.1738 -7.63147 0.0023323 1 
7453 1 -23.6251 22.2399 -9.12166 0.00263038 1 
7454 1 -26.0396 22.3754 -7.56993 0.0056061 1 
7455 1 -25.2317 24.6251 -9.11663 0.00253324 1 
7456 1 -23.7469 23.9263 -6.81825 0.0125391 1 
7457 1 -22.9375 26.1706 -8.35258 0.00457811 1 
7458 1 -25.3503 26.3005 -6.77745 0.00832292 1 
7459 1 -24.5451 28.5374 -8.35372 0.00167485 1 
7460 1 -23.0691 27.8309 -6.02518 0.0121802 1 
7461 1 -22.2495 30.0777 -7.59086 0.00488976 1 
7462 1 -24.6723 30.2079 -6.03393 0.0151585 1 
7463 1 -23.8665 32.4457 -7.62538 0.00582788 1 
7464 1 -22.372 31.7593 -5.29882 0.0252748 1 
7465 1 -21.563 33.993 -6.8654 0.0123613 1 
7466 1 -23.9957 34.1081 -5.36157 0.0578008 1 
7467 1 -23.2038 36.3941 -6.88452 0.0162943 1 
7468 1 -21.7028 35.6702 -4.62623 0.130229 1 
7469 1 -20.9189 37.9435 -6.0753 0.0279215 1 
7470 1 -23.384 38.0907 -4.54002 0.227389 1 
7471 1 -22.5339 40.3328 -6.1068 0.0094136 1 
7472 1 -21.086 39.6738 -3.80477 0.23839 1 
7474 1 -22.6827 42.0551 -3.77563 0.103304 1 
7521 1 -24.539 21.6579 -5.29634 0.0377628 1 
7523 1 -26.1428 24.0493 -5.25762 0.0351761 1 
7524 1 -24.6093 23.2157 -2.97883 1.21053 5 
7525 1 -23.8654 25.582 -4.4529 0.0845263 1 
7526 1 -26.2597 25.6657 -2.94933 5.15613 5 
7527 1 -25.4867 27.9699 -4.4198 0.148956 1 
7528 1 -24.0216 27.2616 -2.12625 5.05681 5 
7529 1 -23.1834 29.5087 -3.75422 0.177824 1 
7530 1 -25.4649 29.7615 -2.09551 5.86607 5 
7531 1 -24.7657 31.9256 -3.72579 0.192497 1 
7532 1 -23.0835 31.3372 -1.54019 9.21731 5 
7533 1 -22.4587 33.497 -3.01305 0.342991 1 
7534 1 -24.954 33.451 -1.22258 6.89932 5 
7535 1 -24.1648 35.6998 -3.13509 0.721864 1 
7536 1 -22.7067 35.222 -0.776321 8.63923 5 
7537 1 -21.8364 37.3402 -2.44213 5.28437 5 
7538 1 -24.261 37.4794 -1.13431 11.7438 5 
7539 1 -23.3848 39.8611 -2.14749 2.80459 5 
7564 1 -27.0232 23.2994 -1.48435 8.90428 5 
7565 1 -24.6691 24.8655 -0.842404 9.55048 5 
7566 1 -25.6688 28.191 0.105174 9.85928 5 
9782 1 -25.1097 29.8067 -14.5703 0.000168629 1 
9784 1 -26.7189 32.1801 -14.5892 0.000156499 1 
9786 1 -24.4258 33.7269 -13.8216 0.000197567 1 
9788 1 -26.036 36.1023 -13.8433 0.000200968 1 
9790 1 -23.743 37.6485 -13.074 0.000232501 1 
9791 1 -22.9385 39.8885 -14.6469 0.000129579 1 
9792 1 -25.3512 40.0244 -13.0986 0.000231955 1 
9793 1 -24.5442 42.2623 -14.6772 9.96083e-05 1 
9794 1 -23.0574 41.568 -12.3302 0.000233381 1 
9796 1 -24.6613 43.9422 -12.3613 0.00019732 1 
9891 1 -26.5992 23.6379 -13.7529 0.000245023 1 
9893 1 -28.2048 26.0131 -13.7648 0.000178449 1 
9894 1 -26.7165 25.3186 -11.4379 0.000494417 1 
9895 1 -25.913 27.5625 -13.0038 0.000255139 1 
9896 1 -28.3228 27.6891 -11.4463 0.000243656 1 
9897 1 -27.5218 29.9343 -13.0187 0.00017926 1 
9898 1 -26.0324 29.2356 -10.6873 0.000433559 1 
9899 1 -25.2293 31.4809 -12.2563 0.000355472 1 
9900 1 -27.6439 31.6055 -10.7042 0.000374463 1 
9901 1 -26.8411 33.8555 -12.2752 0.000345563 1 
9902 1 -25.354 33.1521 -9.94893 0.00112001 1 
9903 1 -24.5486 35.4041 -11.5096 0.000447214 1 
9904 1 -26.9674 35.5323 -9.96629 0.00109699 1 
9905 1 -26.1593 37.783 -11.5286 0.000434455 1 
9906 1 -24.6775 37.087 -9.20089 0.00144178 1 
9907 1 -23.8663 39.3306 -10.7594 0.000453147 1 
9908 1 -26.2844 39.4694 -9.21371 0.000858143 1 
9909 1 -25.4724 41.7082 -10.7813 0.00057309 1 
9910 1 -23.9929 41.0184 -8.44459 0.00115943 1 
9912 1 -25.5916 43.3962 -8.46023 0.00232517 1 
9986 1 -29.1218 25.4452 -9.87334 0.000668427 1 
9987 1 -27.6394 24.7569 -7.54477 0.00565782 1 
9988 1 -26.8335 26.9936 -9.11455 0.000880079 1 
9989 1 -29.2352 27.1139 -7.5442 0.00307574 1 
9990 1 -28.4416 29.357 -9.12552 0.000577656 1 
9991 1 -26.9486 28.6547 -6.78273 0.00550186 1 
9992 1 -26.156 30.9008 -8.37277 0.00129231 1 
9993 1 -28.5643 31.0155 -6.81089 0.00496957 1 
9994 1 -27.7704 33.273 -8.39678 0.00156364 1 
9995 1 -26.292 32.5523 -6.06419 0.0205604 1 
9996 1 -25.4882 34.8223 -7.65287 0.00557979 1 
9997 1 -27.9037 34.941 -6.10138 0.00909768 1 
9998 1 -27.0982 37.2164 -7.66259 0.00478735 1 
9999 1 -25.6344 36.5069 -5.37268 0.0389471 1 
10000 1 -24.8094 38.7816 -6.88493 0.00848887 1 
10001 1 -27.2371 38.9223 -5.36253 0.0487489 1 
10002 1 -26.4092 41.1597 -6.89493 0.00611773 1 
10003 1 -24.9352 40.4921 -4.5387 0.0709841 1 
10004 1 -24.1133 42.7133 -6.12531 0.00792762 1 
10005 1 -26.5099 42.8512 -4.60081 0.102192 1 
10060 1 -28.552 24.2047 -3.64232 3.16835 5 
10061 1 -27.7553 26.4249 -5.18885 0.0944213 1 
10062 1 -30.089 26.6205 -3.5504 6.7505 5 
10063 1 -29.3312 28.7559 -5.21472 0.111767 1 
10064 1 -27.7873 27.9757 -2.66731 4.5938 5 
10065 1 -27.0713 30.2802 -4.44527 0.181299 1 
10066 1 -29.5058 30.3212 -2.97565 0.718781 1 
10067 1 -28.7057 32.6721 -4.51016 0.0498662 1 
10068 1 -27.1915 32.0335 -2.27609 5.0891 5 
10069 1 -26.4161 34.2253 -3.79978 0.130708 1 
10070 1 -28.813 34.363 -2.19009 4.99915 5 
10071 1 -28.0458 36.6437 -3.84156 0.137637 1 
10072 1 -26.5684 35.9227 -1.63636 12.3102 5 
10073 1 -25.789 38.2627 -3.12495 0.588127 1 
10074 1 -27.9967 38.325 -1.48404 7.6677 5 
10075 1 -27.3708 40.5916 -2.98325 0.547511 1 
10076 1 -25.6831 39.8658 -0.524012 8.4277 5 
10077 1 -25.1598 42.1502 -2.23371 5.75258 5 
10078 1 -27.8371 42.2401 -0.756747 14.317 5 
10079 1 -26.5049 44.5394 -2.24245 7.0872 5 
10110 1 -27.1982 25.8766 -0.363876 10.1541 5 
10111 1 -30.2485 28.1349 -0.952183 8.56775 5 
10112 1 -27.9489 29.9402 -0.686697 8.97525 5 
10113 1 -29.8051 32.0562 -0.885093 12.0933 5 
12493 1 -28.3273 34.5544 -14.606 0.000172982 1 
12495 1 -29.933 36.9289 -14.6208 0.000197848 1 
12497 1 -27.6432 38.4777 -13.8619 0.000220424 1 
12499 1 -29.247 40.8506 -13.8801 0.000187267 1 
12501 1 -26.9555 42.3979 -13.1224 0.000176963 1 
12502 1 -26.148 44.6347 -14.7076 8.73762e-05 1 
12503 1 -28.5578 44.7684 -13.1475 0.000141946 1 
12606 1 -30.6112 26.1393 -12.2012 0.000182557 1 
12607 1 -29.8116 28.3858 -13.7762 0.00012788 1 
12608 1 -32.2185 28.5104 -12.2093 0.000174455 1 
12609 1 -31.4186 30.7588 -13.7871 0.000141373 1 
12610 1 -29.9317 30.059 -11.4577 0.000194219 1 
12611 1 -29.1311 32.3075 -13.0327 0.000178386 1 
12612 1 -31.5409 32.4334 -11.4676 0.000261289 1 
12613 1 -30.7383 34.6833 -13.0436 0.000256808 1 
12614 1 -29.2549 33.9823 -10.718 0.000411766 1 
12615 1 -28.4502 36.233 -12.2894 0.000390818 1 
12616 1 -30.8616 36.3636 -10.7237 0.00063947 1 
12617 1 -30.0549 38.6097 -12.2999 0.000420458 1 
12618 1 -28.575 37.9156 -9.97421 0.00106138 1 
12619 1 -27.7648 40.1609 -11.5426 0.000550919 1 
12620 1 -30.1758 40.2936 -9.97706 0.00112395 1 
12621 1 -29.3661 42.5324 -11.5584 0.000329838 1 
12622 1 -27.8855 41.8503 -9.21839 0.00251206 1 
12623 1 -27.0729 44.0801 -10.8042 0.000378007 1 
12624 1 -29.4811 44.2148 -9.23456 0.000973762 1 
12625 1 -28.6737 46.4481 -10.8311 0.000223858 1 
12626 1 -27.1832 45.7619 -8.48642 0.00173589 1 
12706 1 -30.7282 27.8118 -9.87963 0.000433536 1 
12708 1 -32.3386 30.1803 -9.88969 0.000667024 1 
12709 1 -30.8459 29.47 -7.55588 0.00511517 1 
12710 1 -30.0544 31.7272 -9.14226 0.000596813 1 
12711 1 -32.4649 31.8514 -7.5839 0.00462393 1 
12712 1 -31.6636 34.1101 -9.15166 0.000705074 1 
12713 1 -30.1786 33.4001 -6.83446 0.00238005 1 
12714 1 -29.3801 35.6618 -8.40682 0.00143178 1 
12715 1 -31.7811 35.7886 -6.83725 0.0050947 1 
12716 1 -30.9846 38.0483 -8.39977 0.0024516 1 
12717 1 -29.5053 37.3551 -6.09294 0.0167773 1 
12718 1 -28.7013 39.6048 -7.65812 0.00526379 1 
12719 1 -31.0993 39.7282 -6.05585 0.0110989 1 
12720 1 -30.2915 41.9773 -7.64797 0.00473654 1 
12721 1 -28.831 41.2736 -5.32468 0.0489718 1 
12722 1 -27.9995 43.5477 -6.87878 0.0264938 1 
12723 1 -30.3944 43.679 -5.33395 0.0669981 1 
12724 1 -29.5841 45.8987 -6.91437 0.0151923 1 
12725 1 -28.0651 45.2741 -4.49109 0.321612 1 
12727 1 -29.6841 47.5845 -4.6405 0.165025 1 
12783 1 -31.6278 27.2185 -5.9652 0.0378765 1 
12785 1 -33.2664 29.5962 -6.00084 0.00967753 1 
12786 1 -31.7841 28.8913 -3.71985 0.377621 1 
12787 1 -30.9857 31.1388 -5.27801 0.0242498 1 
12788 1 -33.4167 31.2809 -3.69939 0.28415 1 
12789 1 -32.5936 33.5296 -5.28699 0.0551899 1 
12790 1 -31.1123 32.8286 -3.05007 0.966421 1 
12791 1 -30.2918 35.0817 -4.52356 0.0323085 1 
12792 1 -32.6483 35.1725 -2.93347 0.572424 1 
12793 1 -31.8736 37.4444 -4.52219 0.0569316 1 
12794 1 -30.3444 36.7628 -2.17662 4.70762 5 
12795 1 -29.6201 39.0486 -3.70703 0.336802 1 
12796 1 -32.0571 39.1168 -2.28814 9.6255 5 
12797 1 -31.2124 41.4066 -3.67062 0.606461 1 