ITEM: TIMESTEP
0
ITEM: NUMBER OF ATOMS
8187
ITEM: BOX BOUNDS xy xz yz pp pp ss
-267.74033978 68.491714827 -267.74033978
0 66.994928573 0
-94.88513390244151 97.85684940493564 0
ITEM: ATOMS id type x y z c_csym c_cna 
8639 1 3.7469 12.7128 -14.8951 8.74018e-05 1 
8643 1 4.46776 8.73146 -14.7638 8.60745e-05 1 
8647 1 5.18866 4.75314 -14.6386 8.85013e-05 1 
8651 1 5.90949 0.774125 -14.5232 5.25286e-05 1 
8652 1 -68.3457 26.5323 -13.6 7.29891e-05 1 
8653 1 -67.6261 22.5425 -13.4983 0.0001117 1 
8654 1 -68.3459 20.4008 -11.7438 0.000206167 1 
8655 1 -66.9059 18.55 -13.3852 0.0001322 1 
8656 1 0.267746 16.2218 -14.4037 9.36973e-05 1 
8657 1 0.86592 16.411 -11.6215 0.000233664 1 
8658 1 2.3069 14.5617 -13.2581 0.000148381 1 
8659 1 0.988945 12.2375 -14.2765 0.000104402 1 
8660 1 1.58703 12.4297 -11.4877 0.00030274 1 
8661 1 3.02816 10.5794 -13.1246 0.000134959 1 
8662 1 0.268891 10.1067 -12.5076 0.000257085 1 
8663 1 1.71043 8.25692 -14.1487 7.51226e-05 1 
8664 1 2.3087 8.45002 -11.355 0.000202715 1 
8665 1 3.74969 6.6005 -12.9947 0.000130146 1 
8666 1 0.991381 6.12642 -12.382 9.36814e-05 1 
8667 1 2.43194 4.27732 -14.0267 4.79319e-05 1 
8668 1 3.03077 4.46969 -11.2322 0.000232813 1 
8669 1 4.4712 2.62107 -12.876 9.41686e-05 1 
8670 1 1.71404 2.14394 -12.2646 4.68925e-05 1 
8671 1 3.15346 0.296485 -13.9122 3.47095e-05 1 
8672 1 3.75349 0.485951 -11.1177 0.000150171 1 
8673 1 0.143879 14.2788 -9.85172 0.000843491 1 
8674 1 0.864828 10.3056 -9.72052 0.00150531 1 
8675 1 0.140535 8.18556 -7.9611 0.00900286 1 
8676 1 1.58873 6.3216 -9.58914 0.000588744 1 
8677 1 0.273931 3.99401 -10.6184 0.0001766 1 
8678 1 0.874488 4.18591 -7.8246 0.00349315 1 
8679 1 2.31255 2.33368 -9.47238 0.000192115 1 
8680 1 1.5955 0.193261 -7.70898 0.000653903 1 
8681 1 0.159757 2.04214 -6.06983 0.00346905 1 
10227 1 -136.36 49.2316 -13.7829 0.000148834 1 
10230 1 -135.644 45.2513 -13.654 0.000180975 1 
10232 1 -136.962 42.928 -14.6704 8.85689e-05 1 
10234 1 -134.926 41.2742 -13.5276 0.000166845 1 
10236 1 -136.243 38.9507 -14.5491 7.09961e-05 1 
10238 1 -134.205 37.2961 -13.406 5.42631e-05 1 
10240 1 -135.522 34.9727 -14.4331 2.86042e-05 1 
10242 1 -64.9924 33.3173 -13.2923 3.31617e-05 1 
10243 1 -63.5525 31.4704 -14.9451 3.08547e-05 1 
10244 1 -66.3098 30.9933 -14.3239 3.00813e-05 1 
10246 1 -64.2714 29.3369 -13.1864 5.38711e-05 1 
10247 1 -62.8321 27.4877 -14.8392 4.78952e-05 1 
10248 1 -65.5891 27.0103 -14.2205 6.13231e-05 1 
10250 1 -63.5504 25.3518 -13.085 9.50358e-05 1 
10251 1 -62.1115 23.4991 -14.7329 7.05827e-05 1 
10252 1 -64.8686 23.0214 -14.1168 8.59259e-05 1 
10254 1 -62.8294 21.3591 -12.9792 0.000144328 1 
10255 1 -61.3907 19.5061 -14.6178 7.05545e-05 1 
10256 1 -64.1477 19.0282 -14.0033 0.000109163 1 
10258 1 -62.1084 17.3646 -12.8566 0.000158921 1 
10259 1 -60.6707 15.5146 -14.4904 9.15364e-05 1 
10260 1 5.06486 15.0375 -13.8755 0.000123837 1 
10262 1 7.10252 13.3761 -12.7196 0.000185086 1 
10263 1 8.53968 11.529 -14.3552 0.00012642 1 
10264 1 5.78503 11.0533 -13.7395 0.000136744 1 
10266 1 7.82118 9.39495 -12.5781 0.000223468 1 
10267 1 9.25836 7.54985 -14.2203 0.00019125 1 
10268 1 6.50531 7.07469 -13.6058 0.000143135 1 
10270 1 8.54112 5.41938 -12.4448 0.000270566 1 
10271 1 9.97803 3.57351 -14.0963 0.000170573 1 
10272 1 7.22628 3.09769 -13.4833 0.000161474 1 
10274 1 9.26287 1.44216 -12.3279 0.000302995 1 
10275 1 -136.368 43.1214 -11.8781 0.000312569 1 
10276 1 -135.648 39.1437 -11.7577 0.000363546 1 
10277 1 -136.964 36.8191 -12.7797 0.000106195 1 
10278 1 -136.368 37.0109 -9.98904 0.000675342 1 
10279 1 -134.925 35.1637 -11.6395 6.7245e-05 1 
10280 1 -67.7497 32.8406 -12.668 3.96185e-05 1 
10281 1 -67.1514 33.0311 -9.87279 0.000104844 1 
10282 1 -65.7112 31.1843 -11.5303 5.03035e-05 1 
10283 1 -68.467 30.7082 -10.9058 0.000173833 1 
10284 1 -67.0281 28.8599 -12.5649 7.46031e-05 1 
10285 1 -66.4281 29.0506 -9.77127 0.000184161 1 
10286 1 -64.9894 27.2025 -11.4312 0.000136364 1 
10287 1 -67.7452 26.7241 -10.8113 0.000197734 1 
10288 1 -66.3076 24.8739 -12.4675 0.000145011 1 
10289 1 -65.7069 25.0662 -9.68288 0.000544496 1 
10290 1 -64.2686 23.2136 -11.3355 0.000239231 1 
10291 1 -67.0266 22.7335 -10.7194 0.00039553 1 
10292 1 -65.5873 20.8809 -12.3638 0.000174203 1 
10293 1 -64.9868 21.0706 -9.58965 0.000504991 1 
10294 1 -63.5474 19.2165 -11.2249 0.000343618 1 
10295 1 -66.3067 18.7388 -10.6081 0.000399367 1 
10296 1 -64.8664 16.8876 -12.2419 0.000228576 1 
10297 1 -64.2667 17.0754 -9.46347 0.000791159 1 
10298 1 5.66447 15.2254 -11.0894 0.000299807 1 
10299 1 2.90545 14.752 -10.473 0.000404864 1 
10300 1 4.34594 12.9018 -12.1048 0.000209476 1 
10301 1 4.94326 13.0935 -9.31359 0.00054131 1 
10302 1 6.38287 11.2425 -10.9421 0.00037209 1 
10303 1 3.62581 10.7725 -10.3305 0.00040415 1 
10304 1 5.06662 8.92214 -11.9648 0.000269544 1 
10305 1 5.66283 9.11667 -9.15982 0.00125643 1 
10306 1 7.10265 7.26607 -10.7994 0.000396229 1 
10307 1 4.3482 6.79482 -10.195 0.000684562 1 
10308 1 5.78833 4.94511 -11.8358 0.000428438 1 
10309 1 6.38601 5.14087 -9.02574 0.00353315 1 
10310 1 7.82495 3.2896 -10.6754 0.00064398 1 
10311 1 5.07043 2.81236 -10.08 0.00072187 1 
10312 1 6.51019 0.964487 -11.7227 0.000159051 1 
10313 1 7.11006 1.15225 -8.92084 0.000977004 1 
10314 1 -67.8668 30.8989 -8.10773 0.00117651 1 
10315 1 -67.1421 26.9134 -8.01944 0.000891565 1 
10316 1 -68.4634 24.583 -9.06586 0.000645985 1 
10317 1 -67.8607 24.7657 -6.28698 0.00446477 1 
10318 1 -66.4261 22.9224 -7.94774 0.00221784 1 
10319 1 -67.7472 20.5888 -8.97067 0.000805139 1 
10320 1 -67.1486 20.7729 -6.20762 0.00474204 1 
10321 1 -65.7063 18.9268 -7.83737 0.0017306 1 
10322 1 -68.4697 18.4467 -7.21151 0.00339055 1 
10323 1 1.46482 16.6022 -8.84135 0.000749668 1 
10324 1 -66.4234 16.801 -6.05676 0.0044762 1 
10325 1 3.503 14.946 -7.68636 0.00145583 1 
10326 1 0.74086 14.4817 -7.07027 0.00495188 1 
10327 1 2.18467 12.6287 -8.69659 0.00171975 1 
10328 1 2.78115 12.8402 -5.8899 0.0232164 1 
10329 1 4.21845 10.9709 -7.53297 0.00257006 1 
10330 1 1.45595 10.5164 -6.94337 0.0128387 1 
10331 1 2.90451 8.64662 -8.56057 0.00112798 1 
10332 1 3.49065 8.84416 -5.76143 0.0130764 1 
10333 1 4.94381 6.99772 -7.38872 0.00703621 1 
10334 1 2.18239 6.51931 -6.79319 0.0118915 1 
10335 1 3.62627 4.66423 -8.44346 0.00347226 1 
10336 1 4.21277 4.86042 -5.68191 0.0664146 1 
10337 1 5.66688 3.00259 -7.29277 0.00783043 1 
10338 1 2.90744 2.51892 -6.6832 0.00313307 1 
10339 1 4.35123 0.672438 -8.32737 0.00133017 1 
10340 1 4.93996 0.858464 -5.55074 0.0165429 1 
10341 1 -67.8729 18.6423 -4.45051 0.0332137 1 
10342 1 1.35061 14.7063 -4.29054 0.0227789 1 
10343 1 -0.00038574 12.3863 -5.30232 0.0359422 1 
10344 1 0.628934 12.6367 -2.55893 5.25675 5 
10345 1 2.03216 10.7325 -4.19831 0.124204 1 
10346 1 0.71839 8.39601 -5.21278 0.101366 1 
10347 1 1.35821 8.59508 -2.54136 5.91978 5 
10348 1 2.7757 6.71772 -3.97151 0.248181 1 
10349 1 0.019813 6.22491 -3.52831 0.444857 1 
10350 1 1.49207 4.37145 -5.01938 0.0731758 1 
10351 1 2.13531 4.58603 -2.10603 1.10352 5 
10352 1 3.48845 2.70206 -3.88362 0.0549722 1 
10353 1 0.766878 2.24611 -3.27409 0.0455007 1 
10354 1 2.18668 0.377692 -4.90397 0.0110765 1 
10355 1 2.76611 0.536247 -2.08956 0.234216 1 
10356 1 0.670529 6.53751 -0.910012 7.57213 5 
10357 1 1.4067 2.35554 -0.487616 2.1045 5 
10358 1 0.0184498 0.0990049 -1.49338 0.27682 1 
11906 1 -130.124 46.207 -14.8985 9.44993e-05 1 
11910 1 -129.406 42.2275 -14.7666 7.9692e-05 1 
11914 1 -128.688 38.2509 -14.6414 7.24583e-05 1 
11918 1 -127.969 34.2729 -14.5264 4.40283e-05 1 
11922 1 -58.7571 30.292 -14.4185 5.05715e-05 1 
11926 1 -58.037 26.3062 -14.3131 5.99723e-05 1 
11930 1 -57.3171 22.3148 -14.2028 5.42164e-05 1 
11934 1 -56.5982 18.3216 -14.0819 7.10776e-05 1 
11938 1 -55.8816 14.3317 -13.951 0.000112161 1 
11940 1 11.2927 12.0066 -14.9728 0.000106826 1 
11942 1 13.3254 10.3483 -13.8165 0.000114871 1 
11944 1 12.0098 8.02655 -14.8409 9.47419e-05 1 
11946 1 14.0419 6.37114 -13.6877 7.11429e-05 1 
11948 1 12.7283 4.04963 -14.7172 7.06505e-05 1 
11950 1 14.7616 2.39394 -13.5679 7.71374e-05 1 
11952 1 -204.965 65.6686 -14.8495 5.55498e-05 1 
11953 1 -204.365 65.86 -12.0608 0.000199513 1 
11954 1 -202.926 64.0103 -13.7128 4.16543e-05 1 
11955 1 -204.244 61.6827 -14.745 5.0403e-05 1 
11956 1 -203.642 61.8724 -11.9576 0.000108837 1 
11957 1 -202.206 60.0237 -13.6095 6.72655e-05 1 
11958 1 -204.962 59.5433 -12.991 0.00011366 1 
11959 1 -203.526 57.6935 -14.6408 7.12355e-05 1 
11960 1 -202.924 57.8825 -11.8588 0.000176574 1 
11961 1 -201.488 56.0332 -13.5058 0.00012052 1 
11962 1 -204.246 55.5505 -12.8862 0.000125158 1 
11963 1 -202.809 53.7018 -14.5301 9.26976e-05 1 
11964 1 -202.208 53.8895 -11.752 0.000237426 1 
11965 1 -200.771 52.041 -13.3911 0.000152077 1 
11966 1 -203.531 51.5591 -12.7689 0.000176666 1 
11967 1 -133.601 49.7126 -14.4087 0.000115533 1 
11968 1 -133.002 49.9008 -11.6276 0.000273069 1 
11969 1 -131.563 48.0539 -13.2626 0.000168013 1 
11970 1 -134.324 47.5753 -12.6403 0.000260629 1 
11971 1 -132.883 45.7295 -14.2795 0.000125139 1 
11972 1 -132.286 45.9215 -11.4921 0.000326864 1 
11973 1 -130.845 44.0735 -13.1279 0.00013547 1 
11974 1 -133.607 43.598 -12.5092 0.000308438 1 
11975 1 -132.165 41.7507 -14.1499 8.63707e-05 1 
11976 1 -131.568 41.9442 -11.3577 0.000217068 1 
11977 1 -130.127 40.0969 -12.9973 0.000121104 1 
11978 1 -132.888 39.6203 -12.3811 0.000120718 1 
11979 1 -131.446 37.7736 -14.0268 5.92878e-05 1 
11980 1 -130.849 37.9667 -11.2335 0.000295909 1 
11981 1 -129.408 36.1195 -12.8784 0.000111083 1 
11982 1 -132.167 35.6413 -12.2624 6.80846e-05 1 
11983 1 -130.726 33.795 -13.9121 4.70736e-05 1 
11984 1 -130.127 33.9855 -11.1192 0.0002127 1 
11985 1 -60.1953 32.1394 -12.7675 6.04968e-05 1 
11986 1 -62.9536 31.6613 -12.1524 7.76657e-05 1 
11987 1 -61.5138 29.8143 -13.8043 4.75412e-05 1 
11988 1 -60.9136 30.0047 -11.0117 0.000109471 1 
11989 1 -59.4748 28.157 -12.6641 9.56902e-05 1 
11990 1 -62.2323 27.6796 -12.0499 9.22062e-05 1 
11991 1 -60.7933 25.8289 -13.7007 8.89185e-05 1 
11992 1 -60.1925 26.0205 -10.9149 0.000278951 1 
11993 1 -58.7541 24.1675 -12.5605 9.56722e-05 1 
11994 1 -61.5112 23.6908 -11.9499 0.000234275 1 
11995 1 -60.0725 21.8367 -13.5915 7.78682e-05 1 
11996 1 -59.4712 22.0259 -10.8098 0.000198523 1 
11997 1 -58.0339 20.1728 -12.4453 9.1672e-05 1 
11998 1 -60.7896 19.6943 -11.8357 0.000175413 1 
11999 1 -59.3525 17.8426 -13.4691 9.41761e-05 1 
12000 1 -58.7512 18.0298 -10.6834 0.00023508 1 
12001 1 -57.3165 16.1799 -12.3152 0.000145838 1 
12002 1 -60.0705 15.7016 -11.7016 0.000192731 1 
12003 1 9.85699 13.853 -13.3344 0.000135858 1 
12004 1 10.4548 14.0404 -10.5404 0.000243715 1 
12005 1 11.8897 12.1926 -12.1742 0.000301655 1 
12006 1 9.13731 11.7159 -11.5571 0.000307687 1 
12007 1 10.5737 9.87041 -13.1943 0.000283217 1 
12008 1 11.1681 10.0573 -10.3865 0.00124622 1 
12009 1 12.6043 8.21449 -12.0348 0.00025815 1 
12010 1 9.85463 7.739 -11.4105 0.000769628 1 
12011 1 11.2913 5.89444 -13.0623 0.000219614 1 
12012 1 11.8829 6.08498 -10.2488 0.000775071 1 
12013 1 13.3225 4.23927 -11.9096 0.000172635 1 
12014 1 10.5744 3.76425 -11.2848 0.0005612 1 
12015 1 12.0121 1.91774 -12.9436 0.000185066 1 
12016 1 12.606 2.10676 -10.132 0.000545628 1 
12017 1 14.0462 0.260801 -11.7936 0.00025815 1 
12018 1 -205.079 63.7222 -10.3059 0.000778603 1 
12019 1 -204.357 59.73 -10.2086 0.00033576 1 
12020 1 -205.073 57.579 -8.4657 0.00103006 1 
12021 1 -203.643 55.7356 -10.1091 0.000352678 1 
12022 1 -204.967 53.4048 -11.1279 0.000231504 1 
12023 1 -204.366 53.5859 -8.35109 0.00107249 1 
12024 1 -202.932 51.7456 -9.99176 0.000559899 1 
12025 1 -135.763 49.4191 -10.9999 0.000451862 1 
12026 1 -135.168 49.6091 -8.21854 0.00205117 1 
12027 1 -133.727 47.768 -9.85729 0.000935036 1 
12028 1 -136.49 47.2872 -9.21769 0.00123018 1 
12029 1 -135.05 45.4448 -10.8663 0.000720487 1 
12030 1 -134.459 45.6482 -8.08153 0.00465052 1 
12031 1 -133.012 43.7974 -9.72419 0.00169018 1 
12032 1 -135.776 43.3239 -9.08487 0.00187868 1 
12033 1 -134.332 41.4707 -10.7396 0.00103293 1 
12034 1 -133.74 41.6784 -7.96388 0.00963738 1 
12035 1 -132.292 39.8161 -9.59001 0.000694772 1 
12036 1 -135.054 39.3402 -8.97558 0.0034598 1 
12037 1 -133.608 37.4884 -10.6137 0.00021776 1 
12038 1 -133.009 37.6816 -7.82133 0.00441883 1 
12039 1 -131.569 35.8323 -9.47124 0.000254703 1 
12040 1 -134.326 35.3535 -8.84764 0.000409453 1 
12041 1 -132.886 33.5072 -10.4988 8.46893e-05 1 
12042 1 -132.287 33.6947 -7.7053 0.000560415 1 
12043 1 -62.3548 31.8489 -9.36148 0.00048857 1 
12044 1 -65.1126 31.3732 -8.73538 0.000131565 1 
12045 1 -63.6723 29.527 -10.3948 0.000137264 1 
12046 1 -63.0738 29.7115 -7.60368 0.000867546 1 
12047 1 -61.6321 27.8692 -9.26087 0.000267594 1 
12048 1 -64.3888 27.3921 -8.63956 0.000424536 1 
12049 1 -62.9501 25.5443 -10.2987 0.000304812 1 
12050 1 -62.3489 25.7356 -7.50705 0.00275999 1 
12051 1 -60.9109 23.8826 -9.17161 0.00144074 1 
12052 1 -63.6679 23.4063 -8.55698 0.00107618 1 
12053 1 -62.2288 21.549 -10.2027 0.000644738 1 
12054 1 -61.6285 21.7365 -7.43836 0.00579677 1 
12055 1 -60.1873 19.8799 -9.0573 0.000710082 1 
12056 1 -62.9459 19.4023 -8.4542 0.00170481 1 
12057 1 -61.507 17.5511 -10.0749 0.000509195 1 
12058 1 -60.9027 17.735 -7.29298 0.00278618 1 
12059 1 -59.4701 15.8905 -8.91129 0.000675836 1 
12060 1 6.26333 15.4152 -8.30354 0.000844995 1 
12061 1 7.7002 13.5647 -9.92751 0.000481766 1 
12062 1 8.29281 13.7601 -7.13729 0.00251964 1 
12063 1 9.73096 11.9047 -8.75838 0.00112934 1 
12064 1 6.97584 11.4356 -8.14055 0.00144203 1 
12065 1 8.41598 9.58439 -9.77284 0.00068579 1 
12066 1 9.00098 9.77699 -6.96582 0.00584684 1 
12067 1 10.4458 7.93036 -8.58861 0.00436584 1 
12068 1 7.69364 7.46087 -7.98481 0.00140126 1 
12069 1 9.13575 5.61195 -9.63024 0.000727192 1 
12070 1 9.71966 5.80869 -6.80495 0.00134191 1 
12071 1 11.1644 3.95658 -8.46489 0.00217413 1 
12072 1 8.41865 3.48362 -7.86019 0.00362535 1 
12073 1 9.86048 1.63275 -9.51529 0.00107359 1 
12074 1 10.452 1.82332 -6.69506 0.00460303 1 
12075 1 -205.092 51.4399 -6.56915 0.00673121 1 
12076 1 -135.903 47.4887 -6.42297 0.0096533 1 
12077 1 -136.635 45.3896 -4.58277 0.10761 1 
12078 1 -135.187 43.548 -6.28364 0.0138426 1 
12079 1 -136.499 41.2045 -7.31508 0.00511972 1 
12080 1 -135.911 41.4504 -4.52451 0.0828185 1 
12081 1 -134.466 39.5457 -6.22211 0.0440303 1 
12082 1 -135.772 37.2018 -7.21054 0.00692107 1 
12083 1 -135.169 37.3951 -4.46541 0.0852685 1 
12084 1 -133.722 35.5416 -6.05662 0.00561288 1 
12085 1 -136.488 35.0717 -5.42717 0.0103441 1 
12086 1 -66.5521 33.22 -7.07623 0.00060485 1 
12087 1 -65.9457 33.4057 -4.28047 0.0113411 1 
12088 1 -64.5127 31.5589 -5.94009 0.00122865 1 
12089 1 -67.2675 31.0872 -5.30263 0.0106633 1 
12090 1 -65.8276 29.2378 -6.97421 0.000628708 1 
12091 1 -65.2243 29.4193 -4.17919 0.0115512 1 
12092 1 -63.7866 27.5727 -5.84107 0.00285897 1 
12093 1 -66.5327 27.0955 -5.22052 0.00707885 1 
12094 1 -65.1039 25.2564 -6.89523 0.00343647 1 
12095 1 -64.4916 25.4338 -4.09437 0.0408312 1 
12096 1 -63.0667 23.5986 -5.77662 0.010545 1 
12097 1 -65.8247 23.1023 -5.19294 0.0177436 1 
12098 1 -64.3836 21.2578 -6.82354 0.00242318 1 
12099 1 -63.7729 21.4267 -4.06413 0.0246445 1 
12100 1 -62.3425 19.5809 -5.69808 0.0147285 1 
12101 1 -65.1014 19.1148 -5.07282 0.00988685 1 
12102 1 -63.6658 17.2627 -6.68895 0.00366395 1 
12103 1 -63.0572 17.4585 -3.91725 0.0265442 1 
12104 1 -61.6305 15.6109 -5.5112 0.00501463 1 
12105 1 4.09972 15.149 -4.89602 0.0106574 1 
12106 1 5.53456 13.2923 -6.52059 0.00185805 1 
12107 1 6.11113 13.5027 -3.7264 0.0319758 1 
12108 1 7.55542 11.6423 -5.33284 0.0122494 1 
12109 1 4.79753 11.182 -4.73319 0.0360209 1 
12110 1 6.2516 9.3208 -6.3408 0.0104934 1 
12111 1 6.81246 9.56699 -3.49207 0.079844 1 
12112 1 8.26526 7.66235 -5.15928 0.0140033 1 
12113 1 5.53326 7.2236 -4.56186 0.0798132 1 
12114 1 6.97561 5.34503 -6.19637 0.0383845 1 
12115 1 7.51954 5.56337 -3.30831 0.439677 1 
12116 1 8.993 3.68023 -5.0331 0.0234231 1 
12117 1 6.24988 3.1874 -4.52763 0.0792336 1 
12118 1 7.70684 1.33366 -6.11826 0.00933262 1 
12119 1 8.28859 1.48437 -3.30699 0.0782572 1 
12120 1 -136.576 39.2872 -2.78765 0.299599 1 
12121 1 -135.893 35.2788 -2.67275 0.316261 1 
12122 1 -67.9764 33.2444 -0.812383 5.07528 5 
12123 1 -66.6662 31.2522 -2.48905 0.166902 1 
12124 1 -67.9623 28.922 -3.54005 0.100519 1 
12125 1 -67.2541 29.0351 -0.651067 3.60487 5 
12126 1 -65.9219 27.241 -2.43226 7.52826 5 
12127 1 -67.2604 24.932 -3.52179 0.0522899 1 
12128 1 -66.661 25.0118 -0.795217 5.94361 5 
12129 1 -65.2144 23.268 -2.47726 0.202287 1 
12130 1 -67.9762 22.7235 -1.77133 0.121173 1 
12131 1 -66.5399 20.9507 -3.45957 0.0335009 1 
12132 1 -65.9499 21.1481 -0.722221 0.308602 1 
12133 1 -64.4925 19.2637 -2.28735 0.150387 1 
12134 1 -67.2357 18.8457 -1.69741 0.37735 1 
12135 1 -65.8118 17.0134 -3.25479 0.135769 1 
12136 1 -65.0625 17.0488 -0.229047 9.99031 5 
12137 1 4.72524 15.3969 -2.14722 5.30813 5 
12138 1 2.01065 14.9175 -1.48215 4.73041 5 
12139 1 3.36699 13.0562 -3.0445 1.03465 5 
12140 1 4.10838 14.0701 0.145599 10.1263 5 
12141 1 5.31066 11.4717 -1.88224 0.971677 5 
12142 1 2.46618 10.8588 -1.46092 10.0862 5 
12143 1 4.09357 9.07742 -2.9627 0.191629 1 
12144 1 4.57096 9.47854 -0.0861614 6.9128 5 
12145 1 6.10742 7.50866 -1.66875 3.24609 5 
12146 1 3.3665 7.1247 -1.02944 6.42541 5 
12147 1 4.76391 5.05584 -2.99444 1.04864 1 
12148 1 5.36628 5.17507 -0.458962 13.4098 5 
12149 1 6.8577 3.33858 -1.80392 0.62848 1 
12150 1 4.05476 2.86839 -1.01936 7.02283 5 
12151 1 5.50215 1.05878 -2.80543 0.223554 1 
12152 1 6.0999 1.25893 -0.130529 6.24174 5 
13701 1 19.5477 7.32791 -14.9391 2.73588e-05 1 
13705 1 20.2661 3.35034 -14.8223 2.3288e-05 1 
13709 1 -198.852 66.8138 -13.2975 2.41195e-05 1 
13710 1 -197.413 64.9663 -14.9475 2.13869e-05 1 
13711 1 -200.17 64.4883 -14.331 2.19239e-05 1 
13713 1 -198.131 62.8309 -13.1905 3.38139e-05 1 
13714 1 -196.693 60.9825 -14.8412 3.85384e-05 1 
13715 1 -199.449 60.5035 -14.2262 4.55716e-05 1 
13717 1 -197.411 58.8454 -13.088 8.9329e-05 1 
13718 1 -195.974 56.9939 -14.7347 6.47769e-05 1 
13719 1 -198.731 56.5144 -14.1214 8.36254e-05 1 
13721 1 -196.692 54.853 -12.9819 0.000139139 1 
13722 1 -195.255 53.0013 -14.6196 7.0497e-05 1 
13723 1 -198.012 52.5215 -14.0073 0.000115 1 
13725 1 -195.973 50.8593 -12.8594 0.00016789 1 
13726 1 -194.538 49.0109 -14.4922 9.76099e-05 1 
13727 1 -128.803 48.532 -13.8791 0.00013437 1 
13729 1 -126.766 46.8728 -12.7226 0.000190785 1 
13730 1 -125.33 45.027 -14.3574 0.000123884 1 
13731 1 -128.086 44.5496 -13.7429 0.000132026 1 
13733 1 -126.05 42.8939 -12.5817 0.000201996 1 
13734 1 -124.614 41.0496 -14.2237 0.000169541 1 
13735 1 -127.369 40.573 -13.6096 0.00011845 1 
13737 1 -125.334 38.92 -12.4501 0.000221647 1 
13738 1 -123.898 37.0739 -14.1017 0.000128079 1 
13739 1 -126.651 36.5973 -13.4882 0.000125966 1 
13741 1 -124.615 34.9429 -12.3353 0.000224449 1 
13742 1 -123.178 33.095 -13.9903 0.000109055 1 
13743 1 -125.931 32.6177 -13.3784 8.45841e-05 1 
13745 1 -55.4018 30.9613 -12.2304 0.000205349 1 
13746 1 -53.9661 29.1121 -13.8844 0.000129929 1 
13747 1 -56.7189 28.6345 -13.2746 9.10082e-05 1 
13748 1 -55.2827 26.784 -14.9244 6.09614e-05 1 
13749 1 -54.6809 26.9754 -12.1298 0.000161985 1 
13750 1 -53.2463 25.1241 -13.7794 8.34211e-05 1 
13751 1 -55.9989 24.6456 -13.1696 8.0167e-05 1 
13752 1 -54.5636 22.7936 -14.8144 4.93495e-05 1 
13753 1 -53.9614 22.9839 -12.024 0.000125462 1 
13754 1 -52.5281 21.1321 -13.6667 9.01305e-05 1 
13755 1 -55.2798 20.6522 -13.0555 8.39618e-05 1 
13756 1 -53.8455 18.8013 -14.6953 6.21243e-05 1 
13757 1 -53.2443 18.9899 -11.9031 0.000173025 1 
13758 1 -51.8121 17.1397 -13.5442 9.42008e-05 1 
13759 1 -54.5631 16.6596 -12.9284 0.000114878 1 
13760 1 -53.1293 14.8115 -14.5685 6.57556e-05 1 
13761 1 -52.5309 14.9988 -11.7721 0.000149711 1 
13762 1 -51.0969 13.1517 -13.4149 8.81818e-05 1 
13763 1 14.6424 12.672 -12.795 0.000137174 1 
13764 1 16.078 10.8275 -14.4392 5.87422e-05 1 
13765 1 16.6737 11.0143 -11.6386 0.000204706 1 
13766 1 18.1107 9.17184 -13.2865 5.99158e-05 1 
13767 1 15.3569 8.69261 -12.6615 0.000119392 1 
13768 1 16.7945 6.84934 -14.3137 2.98353e-05 1 
13769 1 17.3885 7.03973 -11.5114 0.000141833 1 
13770 1 18.828 5.19503 -13.1663 3.57506e-05 1 
13771 1 16.074 4.71635 -12.5387 8.57723e-05 1 
13772 1 17.5132 2.87166 -14.1954 2.64953e-05 1 
13773 1 18.1079 3.06107 -11.3945 0.000234187 1 
13774 1 19.5478 1.21683 -13.0513 9.08233e-05 1 
13775 1 16.7956 0.737794 -12.4224 9.28675e-05 1 
13776 1 -201.608 66.3367 -12.6802 4.82665e-05 1 
13777 1 -201.007 66.526 -9.88883 0.000237081 1 
13778 1 -199.568 64.6779 -11.5385 5.19474e-05 1 
13779 1 -202.323 64.1993 -10.9234 0.000143722 1 
13780 1 -200.886 62.3518 -12.5746 4.72933e-05 1 
13781 1 -200.283 62.5395 -9.78222 0.000155419 1 
13782 1 -198.847 60.6944 -11.4365 0.000113351 1 
13783 1 -201.602 60.2132 -10.822 0.000234267 1 
13784 1 -200.167 58.3652 -12.4742 0.00014016 1 
13785 1 -199.563 58.5565 -9.68834 0.000664053 1 
13786 1 -198.129 56.706 -11.3394 0.000262511 1 
13787 1 -200.886 56.2227 -10.7275 0.000425432 1 
13788 1 -199.45 54.3724 -12.3694 0.000188565 1 
13789 1 -198.847 54.5614 -9.59499 0.000599733 1 
13790 1 -197.41 52.7094 -11.2289 0.000360273 1 
13791 1 -200.17 52.2289 -10.6146 0.000437641 1 
13792 1 -198.733 50.3801 -12.2468 0.00024772 1 
13793 1 -198.132 50.5676 -9.46873 0.000826859 1 
13794 1 -128.202 48.7201 -11.0935 0.000320566 1 
13795 1 -130.963 48.2442 -10.4786 0.000422681 1 
13796 1 -129.524 46.3962 -12.1091 0.000212899 1 
13797 1 -128.926 46.5887 -9.31924 0.000539342 1 
13798 1 -127.488 44.7399 -10.9466 0.000344237 1 
13799 1 -130.247 44.2673 -10.3355 0.00036654 1 
13800 1 -128.807 42.419 -11.969 0.000236394 1 
13801 1 -128.21 42.6152 -9.166 0.00114475 1 
13802 1 -126.771 40.7661 -10.8047 0.000331538 1 
13803 1 -129.529 40.2924 -10.1996 0.000643875 1 
13804 1 -128.089 38.4442 -11.8403 0.000379244 1 
13805 1 -127.49 38.6421 -9.0325 0.00345062 1 
13806 1 -126.053 36.7911 -10.6826 0.000570809 1 
13807 1 -128.809 36.3124 -10.0847 0.000868198 1 
13808 1 -127.369 34.4644 -11.7281 0.000155175 1 
13809 1 -126.769 34.6538 -8.9295 0.00101114 1 
13810 1 -125.33 32.8086 -10.5775 0.000262002 1 
13811 1 -128.087 32.3284 -9.97213 0.000251769 1 
13812 1 -58.1563 30.4832 -11.6236 0.00011768 1 
13813 1 -57.5554 30.6715 -8.82925 0.000618575 1 
13814 1 -56.117 28.825 -10.4803 0.000306884 1 
13815 1 -58.8735 28.3472 -9.87334 0.000259953 1 
13816 1 -57.4355 26.4973 -11.5237 0.000146437 1 
13817 1 -56.8335 26.6847 -8.73677 0.000622662 1 
13818 1 -55.3961 24.8356 -10.3808 0.000198877 1 
13819 1 -58.1524 24.3566 -9.77693 0.000242364 1 
13820 1 -56.7152 22.5043 -11.4169 0.000116702 1 
13821 1 -56.1124 22.6917 -8.6342 0.000385475 1 
13822 1 -54.6771 20.8411 -10.2689 0.000288664 1 
13823 1 -57.4319 20.3602 -9.66213 0.000248443 1 
13824 1 -55.997 18.5095 -11.2942 0.000168148 1 
13825 1 -55.3952 18.6988 -8.50949 0.000881628 1 
13826 1 -53.9628 16.8483 -10.1357 0.000339765 1 
13827 1 -56.7175 16.3686 -9.5267 0.000412593 1 
13828 1 -55.284 14.5185 -11.1571 0.000313993 1 
13829 1 -54.6898 14.7084 -8.36652 0.00171114 1 
13830 1 15.237 12.8585 -9.99945 0.000864563 1 
13831 1 12.4832 12.3788 -9.37426 0.00113125 1 
13832 1 13.9193 10.5346 -11.0145 0.000357971 1 
13833 1 14.5078 10.7185 -8.21283 0.0024257 1 
13834 1 15.9487 8.88132 -9.85637 0.000648376 1 
13835 1 13.1926 8.40329 -9.22333 0.00100356 1 
13836 1 14.6332 6.56101 -10.8818 0.000240605 1 
13837 1 15.217 6.75487 -8.07687 0.00158714 1 
13838 1 16.6638 4.90759 -9.73789 0.000573869 1 
13839 1 13.9096 4.42978 -9.10089 0.000844101 1 
13840 1 15.3546 2.58249 -10.7621 0.000293587 1 
13841 1 15.9408 2.76953 -7.96096 0.00173573 1 
13842 1 17.3903 0.92353 -9.62083 0.000986311 1 
13843 1 14.6402 0.445773 -8.98223 0.00104272 1 
13844 1 -203.764 66.0513 -9.27765 0.00148298 1 
13845 1 -203.163 66.2428 -6.51163 0.0156289 1 
13846 1 -201.719 64.3833 -8.13386 0.00157554 1 
13847 1 -204.476 63.9106 -7.52932 0.00862678 1 
13848 1 -203.035 62.0583 -9.16886 0.000776475 1 
13849 1 -202.424 62.2348 -6.37149 0.0104124 1 
13850 1 -200.994 60.3999 -8.02849 0.00153121 1 
13851 1 -203.744 59.9095 -7.42422 0.00301853 1 
13852 1 -202.318 58.0688 -9.0784 0.000720178 1 
13853 1 -201.711 58.2494 -6.29876 0.00502828 1 
13854 1 -200.282 56.4106 -7.95501 0.00250762 1 
13855 1 -203.039 55.914 -7.33361 0.00172309 1 
13856 1 -201.607 54.0758 -8.97945 0.000860564 1 
13857 1 -201.007 54.2588 -6.21538 0.0046922 1 
13858 1 -199.569 52.4161 -7.84381 0.00179243 1 
13859 1 -202.333 51.9325 -7.21982 0.00333819 1 
13860 1 -132.402 50.0914 -8.84825 0.000787375 1 
13861 1 -200.29 50.2896 -6.06395 0.00420457 1 
13862 1 -130.365 48.4381 -7.69275 0.00145969 1 
13863 1 -133.13 47.9709 -7.07682 0.00504791 1 
13864 1 -131.688 46.1211 -8.7027 0.0016806 1 
13865 1 -131.091 46.3335 -5.89735 0.0222287 1 
13866 1 -129.654 44.4678 -7.54036 0.00236888 1 
13867 1 -132.42 44.0105 -6.94972 0.0127069 1 
13868 1 -130.972 42.1422 -8.56591 0.00111512 1 
13869 1 -130.382 42.3449 -5.77119 0.0118431 1 
13870 1 -128.931 40.4978 -7.39658 0.0068786 1 
13871 1 -131.697 40.0161 -6.79734 0.0128525 1 
13872 1 -130.253 38.163 -8.44712 0.00382462 1 
13873 1 -129.663 38.3619 -5.68967 0.0679925 1 
13874 1 -128.211 36.5046 -7.30119 0.00869275 1 
13875 1 -130.972 36.0201 -6.68476 0.00292158 1 
13876 1 -129.529 34.1734 -8.33208 0.00161835 1 
13877 1 -128.935 34.3601 -5.56086 0.0177385 1 
13878 1 -127.486 32.5124 -7.17423 0.00305305 1 
13879 1 -61.7574 32.0311 -6.57886 0.00693345 1 
13880 1 -60.3119 30.1911 -8.21666 0.000939841 1 
13881 1 -59.7018 30.3696 -5.41049 0.0171901 1 
13882 1 -58.2716 28.5322 -7.08098 0.00155038 1 
13883 1 -61.0306 28.0528 -6.47248 0.00326064 1 
13884 1 -59.591 26.21 -8.13154 0.00125723 1 
13885 1 -58.9879 26.3932 -5.35028 0.00815942 1 
13886 1 -57.5513 24.5382 -6.99641 0.00145218 1 
13887 1 -60.3127 24.0739 -6.40343 0.0137252 1 
13888 1 -58.87 22.2111 -8.03252 0.00106463 1 
13889 1 -58.2725 22.3807 -5.25937 0.0126794 1 
13890 1 -56.8286 20.5464 -6.87993 0.00229782 1 
13891 1 -59.5825 20.0584 -6.27917 0.0072976 1 
13892 1 -58.149 18.2177 -7.89612 0.00133483 1 
13893 1 -57.5445 18.414 -5.09717 0.0222943 1 
13894 1 -56.1229 16.5629 -6.74265 0.00425578 1 
13895 1 -58.8677 16.0866 -6.11113 0.00599202 1 
13896 1 11.0496 14.2324 -7.74593 0.000715852 1 
13897 1 -56.8496 14.4335 -4.94941 0.0274393 1 
13898 1 13.0712 12.5665 -6.57475 0.00691505 1 
13899 1 10.3163 12.1016 -5.96863 0.0105462 1 
13900 1 11.7575 10.2451 -7.56776 0.00829054 1 
13901 1 12.3429 10.4347 -4.72496 0.0817149 1 
13902 1 13.7707 8.59239 -6.40317 0.0060761 1 
13903 1 11.0287 8.12869 -5.7441 0.0371819 1 
13904 1 12.4643 6.27927 -7.42584 0.00392402 1 
13905 1 13.029 6.48638 -4.58404 0.0423505 1 
13906 1 14.4828 4.62409 -6.3012 0.00918415 1 
13907 1 11.7444 4.15248 -5.63404 0.0126637 1 
13908 1 13.1915 2.29177 -7.31955 0.00287138 1 
13909 1 13.7659 2.4627 -4.52374 0.0165624 1 
13910 1 15.2285 0.619687 -6.17106 0.00684777 1 
13911 1 12.4869 0.140864 -5.53252 0.0106782 1 
13912 1 -205.296 65.9884 -3.04983 3.64328 5 
13913 1 -203.879 64.0965 -4.78099 0.087486 1 
13914 1 -205.179 61.7509 -5.80268 0.0320648 1 
13915 1 -204.567 61.921 -3.09792 0.433193 1 
13916 1 -203.116 60.0762 -4.62156 0.0539127 1 
13917 1 -204.458 57.7468 -5.69485 0.00628004 1 
13918 1 -203.83 57.9025 -2.92249 0.0626179 1 
13919 1 -202.436 56.075 -4.55563 0.010029 1 
13920 1 -205.188 55.5876 -3.93788 0.0116079 1 
13921 1 -203.771 53.7566 -5.57025 0.00830913 1 
13922 1 -203.177 53.8986 -2.78224 0.0614072 1 
13923 1 -201.736 52.1272 -4.45746 0.0318537 1 
13924 1 -204.497 51.5986 -3.75117 0.0667568 1 
13925 1 -134.573 49.8103 -5.44269 0.0200754 1 
13926 1 -133.944 50.0454 -2.68468 0.241004 1 
13927 1 -132.52 48.1952 -4.297 0.0220517 1 
13928 1 -135.299 47.7429 -3.64237 0.155236 1 
13929 1 -133.876 45.8766 -5.30849 0.0361605 1 
13930 1 -133.246 46.1264 -2.5658 5.25448 5 
13931 1 -131.841 44.2298 -4.20504 0.118791 1 
13932 1 -134.585 43.797 -3.47361 4.41598 5 
13933 1 -133.158 41.8961 -5.2205 0.0989803 1 
13934 1 -132.513 42.1037 -2.5465 5.89844 5 
13935 1 -131.092 40.2254 -3.98457 0.232987 1 
13936 1 -133.851 39.7495 -3.54468 0.441301 1 
13937 1 -132.39 37.8707 -5.01761 0.087056 1 
13938 1 -131.708 38.1051 -2.1236 1.12419 5 
13939 1 -130.382 36.2044 -3.89282 0.0578052 1 
13940 1 -133.123 35.7501 -3.2482 0.1365 1 
13941 1 -131.691 33.8818 -4.90503 0.0121183 1 
13942 1 -131.066 34.028 -2.11302 0.241231 1 
13943 1 -61.1542 32.2101 -3.83053 0.0854474 1 
13944 1 -63.9096 31.7199 -3.14317 0.0332934 1 
13945 1 -62.4746 29.8843 -4.82083 0.0120833 1 
13946 1 -61.8343 30.0919 -2.08349 0.193582 1 
13947 1 -60.4245 28.2248 -3.68798 0.060408 1 
13948 1 -63.1802 27.7354 -3.03391 0.111119 1 
13949 1 -61.7432 25.9272 -4.69347 0.0408055 1 
13950 1 -61.1298 26.0944 -1.80512 4.43162 5 
13951 1 -59.7267 24.2584 -3.66131 0.166273 1 
13952 1 -62.4705 23.8109 -2.97701 0.164091 1 
13953 1 -61.0392 21.9173 -4.70581 0.0761492 1 
13954 1 -60.4405 22.0647 -2.0537 0.682734 1 
13955 1 -58.9665 20.2087 -3.4821 0.0893092 1 
13956 1 -61.7345 19.7246 -2.96822 0.171394 1 
13957 1 -60.2904 17.9174 -4.49974 0.0262937 1 
13958 1 -59.6121 18.0936 -1.63162 3.15762 5 
13959 1 -58.2821 16.2809 -3.30016 2.00487 5 
13960 1 -61.0163 15.8307 -2.70101 0.0640483 1 
13961 1 8.87147 13.9647 -4.3581 0.0337959 1 
13962 1 9.39105 14.1018 -1.58823 5.84227 5 
13963 1 10.9008 12.3308 -3.21372 0.201449 1 
13964 1 8.07144 11.8627 -2.51222 0.413984 1 
13965 1 9.56619 9.99089 -4.18098 0.109778 1 
13966 1 10.0827 10.3848 -1.43831 2.22219 1 
13967 1 11.5712 8.35284 -2.83781 0.562981 1 
13968 1 8.80989 7.89412 -2.36931 0.469723 1 
13969 1 10.2838 6.01179 -3.97776 0.0307003 1 
13970 1 10.934 6.15335 -1.18773 1.20916 5 
13971 1 12.3223 4.32317 -2.80287 0.124547 1 
13972 1 9.56091 3.877 -2.2225 0.253476 1 
13973 1 11.0285 2.01012 -3.8761 0.01724 1 
13974 1 11.6002 2.17309 -1.04139 5.16594 5 
13975 1 13.0538 0.296536 -2.71126 0.124208 1 
13976 1 -205.229 59.7353 -1.32697 0.59988 5 
13977 1 -204.61 55.728 -1.15872 0.217014 1 
13978 1 -203.904 51.7168 -0.877908 3.36384 5 