ITEM: TIMESTEP
0
ITEM: NUMBER OF ATOMS
3114
ITEM: BOX BOUNDS xy xz yz pp pp ss
-2.9210581131000001e+01 4.2956736956999997e+01 -2.9210581131000001e+01
0.0000000000000000e+00 4.0697966164999997e+01 0.0000000000000000e+00
-8.3758951763679647e+01 8.3671144552397820e+01 0.0000000000000000e+00
ITEM: ATOMS id type x y z c_csym c_cna 
708 1 2.90595 2.79821 -14.1428 0.000193667 1 
709 1 0.89868 1.36235 -12.6868 0.000583247 1 
710 1 2.90303 0.387402 -10.9017 0.00148569 1 
767 1 2.6202 5.61186 -14.5751 8.29796e-05 1 
768 1 0.328508 6.98902 -13.5518 0.000185098 1 
769 1 0.613463 4.17408 -13.1149 0.000234879 1 
770 1 2.33184 6.0066 -11.7549 0.000536555 1 
771 1 2.6166 3.19683 -11.3142 0.00106635 1 
772 1 0.322091 4.5698 -10.2847 0.0013322 1 
773 1 0.605394 1.76394 -9.85094 0.00355594 1 
774 1 2.32261 3.59458 -8.47873 0.00722224 1 
775 1 2.6064 0.792476 -8.07937 0.0114299 1 
776 1 0.310425 2.16767 -6.99289 0.0178244 1 
777 1 2.28616 1.18805 -5.22903 0.129477 1 
815 1 0.0440065 9.8096 -13.9834 0.000156366 1 
816 1 1.76164 11.651 -12.6137 0.000338965 1 
817 1 2.04656 8.82682 -12.1929 0.000596296 1 
818 1 0.0386632 7.38327 -10.7341 0.00131524 1 
819 1 1.75577 9.22379 -9.38748 0.00377696 1 
820 1 2.041 6.39714 -8.94099 0.00404497 1 
821 1 0.0317923 4.95719 -7.44292 0.00952616 1 
822 1 1.75464 6.78046 -6.1521 0.0347741 1 
823 1 2.05677 3.97147 -5.61354 0.0663403 1 
824 1 0.00578551 2.54942 -4.09624 0.129259 1 
825 1 1.77899 4.4087 -2.8236 0.178708 1 
826 1 2.00229 1.61941 -2.36881 5.56676 5 
847 1 1.18931 17.2827 -13.4541 0.000310422 1 
848 1 1.47605 14.4695 -13.0295 0.00031875 1 
849 1 1.19193 14.8725 -10.1957 0.00178417 1 
850 1 1.47429 12.0549 -9.79232 0.0022678 1 
851 1 1.18411 12.4612 -6.96379 0.0374632 1 
852 1 1.45194 9.624 -6.6003 0.0325873 1 
853 1 1.18619 10.1132 -3.7987 6.08865 5 
854 1 1.45761 7.20351 -3.44389 0.241484 1 
855 1 1.12032 7.63585 -0.816689 10.8326 5 
871 1 0.617856 22.9156 -14.3259 0.000165899 1 
872 1 0.903635 20.0966 -13.8905 0.00013124 1 
873 1 0.619348 20.4915 -11.0666 0.000724432 1 
874 1 0.903488 17.6812 -10.6181 0.00149023 1 
875 1 0.61727 18.0791 -7.76595 0.00689597 1 
876 1 0.910712 15.2761 -7.34949 0.0110822 1 
877 1 0.621796 15.6506 -4.47067 0.35934 1 
878 1 1.00525 12.8754 -4.04517 5.07496 5 
879 1 1.70915 12.1731 -1.3266 8.57772 5 
893 1 0.331135 25.7362 -14.7516 0.000137353 1 
894 1 0.0464031 26.1383 -11.9376 0.0010583 1 
895 1 0.334105 23.3132 -11.5133 0.000900459 1 
896 1 0.0551323 23.7103 -8.71081 0.00415179 1 
897 1 0.339119 20.8849 -8.23977 0.00363992 1 
898 1 0.0617066 21.2916 -5.4126 0.0182865 1 
899 1 0.319722 18.4711 -4.89121 0.071703 1 
900 1 0.132069 18.9828 -1.99016 2.95807 5 
901 1 -0.0838057 15.959 -1.69564 7.15493 5 
1381 1 6.91805 3.25801 -13.7992 0.000255632 1 
1382 1 7.20526 0.444669 -13.378 0.000240579 1 
1383 1 4.91207 1.8229 -12.346 0.00070527 1 
1384 1 6.9215 0.849979 -10.5542 0.00160976 1 
1439 1 6.34453 8.8894 -14.6677 0.000178602 1 
1440 1 6.63159 6.07117 -14.2334 0.000114319 1 
1441 1 4.3393 7.44764 -13.214 0.000340951 1 
1442 1 4.62568 4.63265 -12.775 0.000279956 1 
1443 1 6.3472 6.46598 -11.4134 0.000640364 1 
1444 1 6.63309 3.65742 -10.9685 0.00134431 1 
1445 1 4.33956 5.02699 -9.94976 0.0013689 1 
1446 1 4.62426 2.22579 -9.51347 0.00509817 1 
1447 1 6.34887 4.05431 -8.12721 0.00696532 1 
1448 1 6.64064 1.25912 -7.72269 0.0134975 1 
1449 1 4.31922 2.62485 -6.6715 0.0589902 1 
1450 1 6.33359 1.67678 -4.90277 0.979498 5 
1451 1 4.37198 0.233204 -3.62027 1.4254 5 
1499 1 3.76518 13.09 -14.0611 0.000197547 1 
1500 1 4.05212 10.2694 -13.6431 0.000237261 1 
1501 1 5.76833 12.1113 -12.2746 0.000542462 1 
1502 1 6.05866 9.28615 -11.8568 0.00138886 1 
1503 1 3.76322 10.6697 -10.8305 0.00148691 1 
1504 1 4.05239 7.84087 -10.4048 0.00253191 1 
1505 1 5.77489 9.68233 -9.06466 0.0117585 1 
1506 1 6.06603 6.85766 -8.59784 0.00308688 1 
1507 1 3.76648 8.23429 -7.61915 0.0186619 1 
1508 1 4.05384 5.4182 -7.12719 0.00842492 1 
1509 1 5.79199 7.25853 -5.79395 0.0144441 1 
1510 1 6.04969 4.45941 -5.28024 0.0736901 1 
1511 1 3.79534 5.81519 -4.31495 0.0569901 1 
1512 1 4.1222 2.99691 -3.71008 0.988381 5 
1513 1 5.86541 4.90146 -2.36018 1.10634 5 
1514 1 6.61652 2.16567 -1.35427 11.2997 5 
1515 1 3.94729 3.51527 -0.892367 1.91774 5 
1516 1 4.13541 0.760151 -0.965827 7.3676 5 
1555 1 3.19305 18.7196 -14.9142 8.38236e-05 1 
1556 1 3.47892 15.9054 -14.4836 0.000142168 1 
1557 1 5.19551 17.7401 -13.1149 0.000234879 1 
1558 1 5.48073 14.9283 -12.6868 0.000583247 1 
1559 1 3.19059 16.3052 -11.6521 0.00063203 1 
1560 1 3.47624 13.4929 -11.2322 0.00164463 1 
1561 1 5.18745 15.3299 -9.85094 0.00355594 1 
1562 1 5.47629 12.5156 -9.45662 0.00399484 1 
1563 1 3.18679 13.8976 -8.38451 0.0119393 1 
1564 1 3.47168 11.0743 -8.02464 0.0104257 1 
1565 1 5.18645 12.9276 -6.62741 0.0532052 1 
1566 1 5.50782 10.0826 -6.31551 0.0888781 1 
1567 1 3.18883 11.4763 -5.24256 7.17562 5 
1568 1 3.47778 8.64441 -4.89181 0.139684 1 
1569 1 5.22436 10.498 -3.62451 6.02702 5 
1570 1 5.50425 7.6968 -3.01959 0.357644 1 
1571 1 3.15311 9.13583 -2.24665 7.9577 5 
1572 1 3.5208 6.31745 -1.58141 0.531959 1 
1603 1 4.62606 23.3756 -13.9834 0.000156366 1 
1604 1 4.91056 20.555 -13.5518 0.000185098 1 
1605 1 2.62146 21.9336 -12.5296 0.000341903 1 
1606 1 2.90501 19.1161 -12.0871 0.000547006 1 
1607 1 4.62072 20.9493 -10.7341 0.00131524 1 
1608 1 4.90414 18.1358 -10.2847 0.0013322 1 
1609 1 2.61592 19.5089 -9.25041 0.00377222 1 
1610 1 2.90174 16.7041 -8.80814 0.00208237 1 
1611 1 4.61384 18.5232 -7.44292 0.00952616 1 
1612 1 4.89248 15.7337 -6.99289 0.0178244 1 
1613 1 2.60537 17.0935 -5.94606 0.00892797 1 
1614 1 2.89815 14.2986 -5.51279 0.108636 1 
1615 1 4.58784 16.1154 -4.09624 0.129259 1 
1616 1 4.77123 13.3056 -3.70046 5.69654 5 
1617 1 2.54907 14.7267 -2.43024 6.64657 5 
1618 1 4.48717 11.3767 -1.23164 11.4029 5 
1620 1 5.03422 8.54792 -0.357005 6.68863 2 
1645 1 2.33713 24.7563 -12.9604 0.000349503 1 
1647 1 4.33938 23.7749 -11.1683 0.000861609 1 
1648 1 2.05459 25.1578 -10.15 0.00193692 1 
1649 1 2.33557 22.3294 -9.71325 0.00199055 1 
1650 1 4.05068 24.177 -8.35552 0.00585357 1 
1651 1 4.3252 21.339 -7.92377 0.0112304 1 
1652 1 2.05362 22.7332 -6.89545 0.0121336 1 
1653 1 2.31903 19.9025 -6.39441 0.0310453 1 
1654 1 4.03487 21.7532 -5.13703 0.0716032 1 
1655 1 4.31281 18.9082 -4.61597 0.0539998 1 
1656 1 2.04509 20.329 -3.5227 1.31118 5 
1657 1 2.30057 17.4712 -3.09318 0.794871 5 
1658 1 3.98198 19.269 -1.79605 3.69882 5 
1659 1 4.38354 16.49 -1.11109 6.17198 5 
1660 1 1.72487 17.2377 -0.384091 6.43896 5 
1684 1 1.77529 25.5617 -7.35056 0.0121359 1 
1686 1 3.77165 24.6032 -5.52529 0.0787695 1 
1687 1 1.49253 25.9533 -4.56755 0.0925056 1 
1688 1 1.78322 23.1636 -4.06897 0.121865 1 
1689 1 3.62242 25.0322 -2.62813 7.38172 2 
1690 1 3.78414 22.244 -2.37371 8.26196 5 
1691 1 1.67454 23.596 -1.18144 7.4486 5 
1692 1 2.65885 21.0545 -0.113444 9.31439 5 
1714 1 1.17622 26.4135 -1.80444 9.0517 5 
2225 1 9.20891 1.88091 -14.8271 0.00013624 1 
2226 1 10.9262 3.71672 -13.4541 0.000310422 1 
2227 1 11.2129 0.903522 -13.0295 0.00031875 1 
2228 1 8.92431 2.28236 -11.9979 0.000725727 1 
2229 1 10.9288 1.30648 -10.1957 0.00178417 1 
2284 1 10.3547 9.34956 -14.3259 0.000165899 1 
2285 1 10.6405 6.5306 -13.8905 0.00013124 1 
2286 1 8.35122 7.90755 -12.8719 0.000360704 1 
2287 1 8.63741 5.09228 -12.4293 0.000404231 1 
2288 1 10.3562 6.92556 -11.0666 0.000724432 1 
2289 1 10.6403 4.11526 -10.6181 0.00149023 1 
2290 1 8.35451 5.48771 -9.5972 0.00184223 1 
2291 1 8.64123 2.68524 -9.15931 0.00334677 1 
2292 1 10.3541 4.51311 -7.76595 0.00689597 1 
2293 1 10.6476 1.71013 -7.34949 0.0110822 1 
2294 1 8.36139 3.08248 -6.30386 0.0329683 1 
2295 1 8.66713 0.265095 -5.95906 0.0875286 1 
2296 1 10.3587 2.08457 -4.47067 0.35934 1 
2297 1 8.27913 0.658163 -3.25198 7.48378 5 
2343 1 10.068 12.1702 -14.7516 0.000137353 1 
2344 1 7.77471 13.55 -13.7222 0.000204221 1 
2345 1 8.06317 10.7296 -13.3046 0.000483435 1 
2346 1 9.78326 12.5723 -11.9376 0.0010583 1 
2347 1 10.071 9.74721 -11.5133 0.000900459 1 
2348 1 7.77864 11.1298 -10.5006 0.00367283 1 
2349 1 8.07002 8.30144 -10.0602 0.00198356 1 
2350 1 9.79199 10.1443 -8.71081 0.00415179 1 
2351 1 10.076 7.31891 -8.23977 0.00363992 1 
2352 1 7.79634 8.69417 -7.26108 0.0088758 1 
2353 1 8.07327 5.88192 -6.75692 0.010276 1 
2354 1 9.79857 7.72564 -5.4126 0.0182865 1 
2355 1 10.0566 4.9051 -4.89121 0.071703 1 
2356 1 7.8052 6.32284 -3.91097 0.123529 1 
2357 1 7.99255 3.54284 -3.46511 1.85087 5 
2358 1 9.86893 5.4168 -1.99016 2.95807 5 
2359 1 9.65305 2.39299 -1.69564 7.15493 5 
2360 1 8.02318 4.49631 -0.215425 8.22337 5 
2361 1 -20.4114 40.5834 -0.668333 8.36208 5 
2399 1 7.20225 19.1778 -14.5751 8.29796e-05 1 
2400 1 7.488 16.3642 -14.1428 0.000193667 1 
2402 1 9.49412 15.3889 -12.346 0.00070527 1 
2403 1 7.19865 16.7628 -11.3142 0.00106635 1 
2404 1 7.48508 13.9534 -10.9017 0.00148569 1 
2405 1 9.20631 15.7918 -9.51347 0.00509817 1 
2406 1 9.50146 12.978 -9.13631 0.00913806 1 
2407 1 7.18845 14.3585 -8.07937 0.0114299 1 
2408 1 7.49866 11.5319 -7.72112 0.0277855 1 
2409 1 9.21835 13.3826 -6.36562 0.0680572 1 
2410 1 9.51321 10.5464 -5.9257 0.0153673 1 
2411 1 7.22657 11.9551 -4.97811 0.246293 1 
2412 1 7.52444 9.10972 -4.47572 0.0798861 1 
2413 1 9.24173 10.9764 -3.16655 0.131737 1 
2414 1 9.55654 8.2257 -2.56537 6.12647 5 
2415 1 7.14641 9.70632 -1.76073 1.58615 5 
2416 1 7.53491 7.03754 -1.09274 6.06366 5 
2450 1 6.91389 19.5726 -11.7549 0.000536555 1 
2453 1 6.62306 19.9631 -8.94099 0.00404497 1 
2454 1 6.90466 17.1606 -8.47873 0.00722224 1 
2456 1 8.90127 16.1908 -6.6715 0.0589902 1 
2457 1 6.63883 17.5375 -5.61354 0.0663403 1 
2458 1 6.86821 14.754 -5.22903 0.129477 1 
2459 1 8.70425 16.5629 -3.71008 0.988381 5 
2460 1 8.95404 13.7992 -3.62027 1.4254 5 
2461 1 6.58434 15.1854 -2.36881 5.56676 5 
2462 1 6.94558 12.4073 -2.30655 6.3721 5 
2463 1 8.71747 14.3261 -0.965827 7.3676 5 
2496 1 6.33669 20.3465 -6.1521 0.0347741 1 
2499 1 6.03966 20.7695 -3.44389 0.241484 1 
2500 1 6.36104 17.9747 -2.8236 0.178708 1 
2502 1 8.52934 17.0813 -0.892367 1.91774 5 
2533 1 5.70237 21.2018 -0.816689 10.8326 5 
3073 1 12.9299 5.15358 -14.9142 8.38236e-05 1 
3074 1 13.2158 2.33943 -14.4836 0.000142168 1 
3075 1 14.9324 4.17408 -13.1149 0.000234879 1 
3076 1 15.2176 1.36235 -12.6868 0.000583247 1 
3077 1 12.9274 2.73922 -11.6521 0.00063203 1 
3078 1 14.9243 1.76394 -9.85094 0.00355594 1 
3079 1 12.9237 0.331612 -8.38451 0.0119393 1 
3132 1 14.3629 9.8096 -13.9834 0.000156366 1 
3133 1 14.6474 6.98902 -13.5518 0.000185098 1 
3134 1 12.3583 8.36761 -12.5296 0.000341903 1 
3135 1 12.6419 5.55006 -12.0871 0.000547006 1 
3136 1 14.3576 7.38327 -10.7341 0.00131524 1 
3137 1 14.641 4.5698 -10.2847 0.0013322 1 
3138 1 12.3528 5.9429 -9.25041 0.00377222 1 
3139 1 12.6386 3.13811 -8.80814 0.00208237 1 
3140 1 14.3507 4.95719 -7.44292 0.00952616 1 
3141 1 14.6293 2.16767 -6.99289 0.0178244 1 
3142 1 12.3422 3.52753 -5.94606 0.00892797 1 
3143 1 12.635 0.732587 -5.51279 0.108636 1 
3144 1 14.3247 2.54942 -4.09624 0.129259 1 
3145 1 12.2859 1.16076 -2.43024 6.64657 5 
3194 1 12.074 11.1904 -12.9604 0.000349503 1 
3196 1 14.0762 10.2089 -11.1683 0.000861609 1 
3197 1 11.7914 11.5918 -10.15 0.00193692 1 
3198 1 12.0724 8.76339 -9.71325 0.00199055 1 
3199 1 13.7875 10.6111 -8.35552 0.00585357 1 
3200 1 14.0621 7.77304 -7.92377 0.0112304 1 
3201 1 11.7905 9.16723 -6.89545 0.0121336 1 
3202 1 12.0559 6.3365 -6.39441 0.0310453 1 
3203 1 13.7717 8.18723 -5.13703 0.0716032 1 
3204 1 14.0497 5.34222 -4.61597 0.0539998 1 
3205 1 11.782 6.76301 -3.5227 1.31118 5 
3206 1 12.0374 3.90526 -3.09318 0.794871 5 
3207 1 13.7188 5.70305 -1.79605 3.69882 5 
3208 1 14.1204 2.92398 -1.11109 6.17198 5 
3209 1 11.4617 3.67173 -0.384091 6.43896 5 
3255 1 11.5121 11.9957 -7.35056 0.0121359 1 
3257 1 13.5085 11.0373 -5.52529 0.0787695 1 
3258 1 11.2294 12.3873 -4.56755 0.0925056 1 
3259 1 11.5201 9.59763 -4.06897 0.121865 1 
3260 1 13.3593 11.4662 -2.62813 7.38172 2 
3261 1 13.521 8.67802 -2.37371 8.26196 5 
3262 1 11.4114 10.03 -1.18144 7.4486 5 
3263 1 12.3957 7.48855 -0.113444 9.31439 5 
3308 1 10.9131 12.8475 -1.80444 9.0517 5 
3919 1 16.9391 5.61186 -14.5751 8.29796e-05 1 
3920 1 17.2249 2.79821 -14.1428 0.000193667 1 
3922 1 19.231 1.8229 -12.346 0.00070527 1 
3923 1 16.9355 3.19683 -11.3142 0.00106635 1 
3924 1 17.2219 0.387402 -10.9017 0.00148569 1 
3925 1 18.9432 2.22579 -9.51347 0.00509817 1 
3926 1 16.9253 0.792476 -8.07937 0.0114299 1 
3982 1 16.6508 6.0066 -11.7549 0.000536555 1 
3985 1 16.3599 6.39714 -8.94099 0.00404497 1 
3986 1 16.6415 3.59458 -8.47873 0.00722224 1 
3988 1 18.6381 2.62485 -6.6715 0.0589902 1 
3989 1 16.3757 3.97147 -5.61354 0.0663403 1 
3990 1 16.6051 1.18805 -5.22903 0.129477 1 
3991 1 18.4411 2.99691 -3.71008 0.988381 5 
3992 1 18.6909 0.233204 -3.62027 1.4254 5 
3993 1 16.3212 1.61941 -2.36881 5.56676 5 
3994 1 18.4543 0.760151 -0.965827 7.3676 5 
4049 1 16.0736 6.78046 -6.1521 0.0347741 1 
4052 1 15.7765 7.20351 -3.44389 0.241484 1 
4053 1 16.0979 4.4087 -2.8236 0.178708 1 
4055 1 18.2662 3.51527 -0.892367 1.91774 5 
4108 1 15.4392 7.63585 -0.816689 10.8326 5 
4249 1 -29.0214 40.4376 -3.70046 5.69654 5 
5039 1 -23.4379 36.4815 -14.3259 0.000165899 1 
5040 1 -23.1521 33.6626 -13.8905 0.00013124 1 
5043 1 -23.4364 34.0575 -11.0666 0.000724432 1 
5058 1 -23.7246 39.3022 -14.7516 0.000137353 1 
5059 1 -26.0179 40.682 -13.7222 0.000204221 1 
5060 1 -25.7295 37.8615 -13.3046 0.000483435 1 
5061 1 -24.0094 39.7043 -11.9376 0.0010583 1 
5062 1 -23.7217 36.8792 -11.5133 0.000900459 1 
5063 1 -26.014 38.2618 -10.5006 0.00367283 1 
5065 1 -24.0006 37.2763 -8.71081 0.00415179 1 
5066 1 -23.7167 34.4509 -8.23977 0.00363992 1 
5069 1 -23.9941 34.8576 -5.4126 0.0182865 1 
5077 1 -24.2912 40.11 -9.13631 0.00913806 1 
5078 1 -26.294 38.6639 -7.72112 0.0277855 1 
5079 1 -24.5743 40.5146 -6.36562 0.0680572 1 
5080 1 -24.2794 37.6783 -5.9257 0.0153673 1 
5081 1 -26.5661 39.0871 -4.97811 0.246293 1 
5083 1 -24.5509 38.1084 -3.16655 0.131737 1 
5084 1 -24.2361 35.3577 -2.56537 6.12647 5 
5087 1 -26.8471 39.5393 -2.30655 6.3721 5 
5825 1 -18.2874 25.6772 -12.2746 0.000542462 1 
5856 1 -20.8627 32.2856 -14.9142 8.38236e-05 1 
5857 1 -20.5769 29.4714 -14.4836 0.000142168 1 
5858 1 -18.8603 31.3061 -13.1149 0.000234879 1 
5859 1 -18.575 28.4943 -12.6868 0.000583247 1 
5860 1 -20.8652 29.8712 -11.6521 0.00063203 1 
5862 1 -18.8683 28.8959 -9.85094 0.00355594 1 
5863 1 -18.5795 26.0816 -9.45662 0.00399484 1 
5882 1 -19.4297 36.9416 -13.9834 0.000156366 1 
5883 1 -19.1452 34.121 -13.5518 0.000185098 1 
5884 1 -21.4343 35.4996 -12.5296 0.000341903 1 
5885 1 -21.1508 32.682 -12.0871 0.000547006 1 
5886 1 -19.4351 34.5152 -10.7341 0.00131524 1 
5887 1 -19.1516 31.7018 -10.2847 0.0013322 1 
5888 1 -21.4399 33.0749 -9.25041 0.00377222 1 
5889 1 -21.154 30.2701 -8.80814 0.00208237 1 
5890 1 -19.4419 32.0892 -7.44292 0.00952616 1 
5891 1 -19.1633 29.2996 -6.99289 0.0178244 1 
5892 1 -21.4504 30.6595 -5.94606 0.00892797 1 
5894 1 -19.4679 29.6814 -4.09624 0.129259 1 
5895 1 -19.2845 26.8716 -3.70046 5.69654 5 
5901 1 -19.7151 39.7623 -14.4064 9.49247e-05 1 
5902 1 -21.7186 38.3223 -12.9604 0.000349503 1 
5903 1 -19.9995 40.165 -11.5859 0.000540655 1 
5904 1 -19.7164 37.3409 -11.1683 0.000861609 1 
5905 1 -22.0012 38.7238 -10.15 0.00193692 1 
5906 1 -21.7202 35.8954 -9.71325 0.00199055 1 
5907 1 -20.0051 37.743 -8.35552 0.00585357 1 
5908 1 -19.7306 34.905 -7.92377 0.0112304 1 
5909 1 -22.0021 36.2992 -6.89545 0.0121336 1 
5910 1 -21.7367 33.4685 -6.39441 0.0310453 1 
5911 1 -20.0209 35.3192 -5.13703 0.0716032 1 
5912 1 -19.743 32.4742 -4.61597 0.0539998 1 
5913 1 -22.0107 33.895 -3.5227 1.31118 5 
5914 1 -21.7552 31.0372 -3.09318 0.794871 5 
5915 1 -20.0738 32.835 -1.79605 3.69882 5 
5916 1 -19.6722 30.056 -1.11109 6.17198 5 
5918 1 -20.2823 40.5711 -8.76798 0.00418379 1 
5919 1 -22.2805 39.1277 -7.35056 0.0121359 1 
5920 1 -20.2841 38.1692 -5.52529 0.0787695 1 
5921 1 -22.5632 39.5193 -4.56755 0.0925056 1 
5922 1 -22.2726 36.7296 -4.06897 0.121865 1 
5923 1 -20.4334 38.5982 -2.62813 7.38172 2 
5924 1 -20.2716 35.81 -2.37371 8.26196 5 
5925 1 -22.3812 37.162 -1.18144 7.4486 5 
5926 1 -21.3969 34.6205 -0.113444 9.31439 5 
5927 1 -22.8796 39.9794 -1.80444 9.0517 5 
6625 1 -13.7011 22.9156 -14.3259 0.000165899 1 
6626 1 -13.4153 20.0966 -13.8905 0.00013124 1 
6629 1 -13.6996 20.4915 -11.0666 0.000724432 1 
6666 1 -13.9878 25.7362 -14.7516 0.000137353 1 
6667 1 -16.2811 27.116 -13.7222 0.000204221 1 
6668 1 -15.9926 24.2956 -13.3046 0.000483435 1 
6669 1 -14.2725 26.1383 -11.9376 0.0010583 1 
6670 1 -13.9848 23.3132 -11.5133 0.000900459 1 
6671 1 -16.2771 24.6958 -10.5006 0.00367283 1 
6673 1 -14.2638 23.7103 -8.71081 0.00415179 1 
6674 1 -13.9798 20.8849 -8.23977 0.00363992 1 
6677 1 -14.2572 21.2916 -5.4126 0.0182865 1 
6699 1 -16.8535 32.7438 -14.5751 8.29796e-05 1 
6700 1 -16.5678 29.9302 -14.1428 0.000193667 1 
6701 1 -14.848 31.7646 -12.775 0.000279956 1 
6702 1 -14.5617 28.9549 -12.346 0.00070527 1 
6703 1 -16.8571 30.3288 -11.3142 0.00106635 1 
6704 1 -16.5707 27.5194 -10.9017 0.00148569 1 
6705 1 -14.8495 29.3578 -9.51347 0.00509817 1 
6706 1 -14.5543 26.544 -9.13631 0.00913806 1 
6707 1 -16.8673 27.9245 -8.07937 0.0114299 1 
6708 1 -16.5571 25.0979 -7.72112 0.0277855 1 
6709 1 -14.8374 26.9486 -6.36562 0.0680572 1 
6710 1 -14.5426 24.1123 -5.9257 0.0153673 1 
6711 1 -16.8292 25.5211 -4.97811 0.246293 1 
6713 1 -14.814 24.5424 -3.16655 0.131737 1 
6714 1 -14.4992 21.7917 -2.56537 6.12647 5 
6725 1 -15.4216 37.4014 -13.6431 0.000237261 1 
6726 1 -15.1344 34.5796 -13.214 0.000340951 1 
6727 1 -17.4272 35.9588 -12.1929 0.000596296 1 
6728 1 -17.1419 33.1386 -11.7549 0.000536555 1 
6729 1 -15.4213 34.9728 -10.4048 0.00253191 1 
6730 1 -15.1342 32.159 -9.94976 0.0013689 1 
6731 1 -17.4327 33.5291 -8.94099 0.00404497 1 
6732 1 -17.1511 30.7266 -8.47873 0.00722224 1 
6733 1 -15.4199 32.5502 -7.12719 0.00842492 1 
6734 1 -15.1545 29.7568 -6.6715 0.0589902 1 
6735 1 -17.4169 31.1035 -5.61354 0.0663403 1 
6736 1 -17.1876 28.32 -5.22903 0.129477 1 
6737 1 -15.3515 30.1289 -3.71008 0.988381 5 
6738 1 -15.1017 27.3652 -3.62027 1.4254 5 
6739 1 -17.4714 28.7514 -2.36881 5.56676 5 
6740 1 -17.1102 25.9733 -2.30655 6.3721 5 
6741 1 -15.3383 27.8921 -0.965827 7.3676 5 
6743 1 -15.7085 40.222 -14.0611 0.000197547 1 
6744 1 -17.7121 38.783 -12.6137 0.000338965 1 
6745 1 -15.9975 40.6249 -11.2322 0.00164463 1 
6746 1 -15.7105 37.8017 -10.8305 0.00148691 1 
6747 1 -17.9994 39.1869 -9.79232 0.0022678 1 
6748 1 -17.718 36.3558 -9.38748 0.00377696 1 
6749 1 -16.002 38.2063 -8.02464 0.0104257 1 
6750 1 -15.7072 35.3663 -7.61915 0.0186619 1 
6751 1 -18.0218 36.756 -6.6003 0.0325873 1 
6752 1 -17.7191 33.9124 -6.1521 0.0347741 1 
6753 1 -15.9959 35.7764 -4.89181 0.139684 1 
6754 1 -15.6784 32.9472 -4.31495 0.0569901 1 
6755 1 -18.0161 34.3355 -3.44389 0.241484 1 
6756 1 -17.6947 31.5407 -2.8236 0.178708 1 
6757 1 -15.9529 33.4494 -1.58141 0.531959 1 
6758 1 -15.5264 30.6472 -0.892367 1.91774 5 
6759 1 -18.2896 39.5932 -6.96379 0.0374632 1 
6760 1 -16.2849 38.6083 -5.24256 7.17562 5 
6761 1 -18.4685 40.0074 -4.04517 5.07496 5 
6762 1 -18.2875 37.2452 -3.7987 6.08865 5 
6763 1 -14.9865 38.5087 -1.23164 11.4029 5 
6764 1 -16.3206 36.2678 -2.24665 7.9577 5 
6766 1 -18.3534 34.7678 -0.816689 10.8326 5 
6767 1 -17.7646 39.3051 -1.3266 8.57772 5 
10886 2 -3.57811 31.9963 -0.100326 5.66653 5 
7421 1 -11.1259 18.7196 -14.9142 8.38236e-05 1 
7422 1 -10.84 15.9054 -14.4836 0.000142168 1 
7423 1 -9.1234 17.7401 -13.1149 0.000234879 1 
7424 1 -8.83818 14.9283 -12.6868 0.000583247 1 
7425 1 -11.1283 16.3052 -11.6521 0.00063203 1 
7427 1 -9.13147 15.3299 -9.85094 0.00355594 1 
7431 1 -9.13247 12.9276 -6.62741 0.0532052 1 
7469 1 -9.69285 23.3756 -13.9834 0.000156366 1 
7470 1 -9.40835 20.555 -13.5518 0.000185098 1 
7471 1 -11.6975 21.9336 -12.5296 0.000341903 1 
7472 1 -11.4139 19.1161 -12.0871 0.000547006 1 
7473 1 -9.6982 20.9493 -10.7341 0.00131524 1 
7474 1 -9.41477 18.1358 -10.2847 0.0013322 1 
7475 1 -11.703 19.5089 -9.25041 0.00377222 1 
7476 1 -11.4172 16.7041 -8.80814 0.00208237 1 
7477 1 -9.70507 18.5232 -7.44292 0.00952616 1 
7478 1 -9.42644 15.7337 -6.99289 0.0178244 1 
7479 1 -11.7135 17.0935 -5.94606 0.00892797 1 
7481 1 -9.73107 16.1154 -4.09624 0.129259 1 
8782 1 -0.756192 24.8921 -0.442996 6.22861 5 
7508 1 -10.2648 29.0129 -14.8271 0.00013624 1 
7509 1 -9.97824 26.1963 -14.4064 9.49247e-05 1 
7510 1 -12.2685 27.5766 -13.378 0.000240579 1 
7511 1 -11.9818 24.7563 -12.9604 0.000349503 1 
7512 1 -10.2627 26.599 -11.5859 0.000540655 1 
7513 1 -9.97953 23.7749 -11.1683 0.000861609 1 
7514 1 -12.2643 25.1578 -10.15 0.00193692 1 
7515 1 -11.9833 22.3294 -9.71325 0.00199055 1 
7516 1 -10.2682 24.177 -8.35552 0.00585357 1 
7517 1 -9.99371 21.339 -7.92377 0.0112304 1 
7518 1 -12.2653 22.7332 -6.89545 0.0121336 1 
7519 1 -11.9999 19.9025 -6.39441 0.0310453 1 
7520 1 -10.284 21.7532 -5.13703 0.0716032 1 
7521 1 -10.0061 18.9082 -4.61597 0.0539998 1 
7522 1 -12.2738 20.329 -3.5227 1.31118 5 
7523 1 -12.0183 17.4712 -3.09318 0.794871 5 
7524 1 -10.3369 19.269 -1.79605 3.69882 5 
7525 1 -9.93537 16.49 -1.11109 6.17198 5 
7541 1 -12.8421 33.2032 -14.2334 0.000114319 1 
7542 1 -12.5557 30.39 -13.7992 0.000255632 1 
7543 1 -10.8363 32.2243 -12.4293 0.000404231 1 
7544 1 -10.5494 29.4143 -11.9979 0.000725727 1 
7545 1 -12.8406 30.7894 -10.9685 0.00134431 1 
7546 1 -12.5522 27.982 -10.5542 0.00160976 1 
7547 1 -10.8325 29.8172 -9.15931 0.00334677 1 
7548 1 -10.5455 27.0051 -8.76798 0.00418379 1 
7549 1 -12.8331 28.3911 -7.72269 0.0134975 1 
7550 1 -12.5436 25.5617 -7.35056 0.0121359 1 
7551 1 -10.8066 27.3971 -5.95906 0.0875286 1 
7552 1 -10.5473 24.6032 -5.52529 0.0787695 1 
7553 1 -12.8264 25.9533 -4.56755 0.0925056 1 
7554 1 -12.5357 23.1636 -4.06897 0.121865 1 
7555 1 -10.6965 25.0322 -2.62813 7.38172 2 
7556 1 -10.5348 22.244 -2.37371 8.26196 5 
7557 1 -12.6444 23.596 -1.18144 7.4486 5 
7558 1 -11.6601 21.0545 -0.113444 9.31439 5 
7564 1 -13.1292 36.0214 -14.6677 0.000178602 1 
7565 1 -11.4106 37.8615 -13.3046 0.000483435 1 
7566 1 -11.1225 35.0395 -12.8719 0.000360704 1 
7567 1 -13.4151 36.4181 -11.8568 0.00138886 1 
7568 1 -13.1265 33.598 -11.4134 0.000640364 1 
7569 1 -11.4037 35.4334 -10.0602 0.00198356 1 
7570 1 -11.1192 32.6197 -9.5972 0.00184223 1 
7571 1 -13.4077 33.9896 -8.59784 0.00308688 1 
7572 1 -13.1249 31.1863 -8.12721 0.00696532 1 
7573 1 -11.4005 33.0139 -6.75692 0.010276 1 
7574 1 -11.1123 30.2145 -6.30386 0.0329683 1 
7575 1 -13.424 31.5914 -5.28024 0.0736901 1 
7576 1 -13.1401 28.8088 -4.90277 0.979498 5 
7577 1 -11.4812 30.6748 -3.46511 1.85087 5 
7578 1 -11.1946 27.7901 -3.25198 7.48378 5 
7579 1 -12.8572 29.2977 -1.35427 11.2997 5 
7580 1 -13.1427 26.4135 -1.80444 9.0517 5 
7581 1 -10.6745 27.0174 -0.668333 8.36208 5 
7582 1 -11.699 40.682 -13.7222 0.000204221 1 
7583 1 -13.7054 39.2432 -12.2746 0.000542462 1 
7584 1 -11.6951 38.2618 -10.5006 0.00367283 1 
7585 1 -13.9974 39.6476 -9.45662 0.00399484 1 
7586 1 -13.6988 36.8143 -9.06466 0.0117585 1 
7587 1 -11.9751 38.6639 -7.72112 0.0277855 1 
7588 1 -11.6774 35.8261 -7.26108 0.0088758 1 
7589 1 -13.9659 37.2146 -6.31551 0.0888781 1 
7590 1 -13.6817 34.3905 -5.79395 0.0144441 1 
7591 1 -11.9493 36.2417 -4.47572 0.0798861 1 
7592 1 -11.6685 33.4548 -3.91097 0.123529 1 
7593 1 -13.9695 34.8288 -3.01959 0.357644 1 
7594 1 -13.6083 32.0334 -2.36018 1.10634 5 
7595 1 -11.9388 34.1695 -1.09274 6.06366 5 
7596 1 -11.4505 31.6283 -0.215425 8.22337 5 
7597 1 -14.2873 40.0596 -6.62741 0.0532052 1 
7598 1 -12.2472 39.0871 -4.97811 0.246293 1 
7599 1 -14.7025 40.4376 -3.70046 5.69654 5 
7600 1 -14.2494 37.63 -3.62451 6.02702 5 
7601 1 -12.5281 39.5393 -2.30655 6.3721 5 
7602 1 -12.3273 36.8383 -1.76073 1.58615 5 
7603 1 -14.4395 35.6799 -0.357005 6.68863 2 
8083 1 -3.9642 9.34956 -14.3259 0.000165899 1 
8084 1 -3.67842 6.5306 -13.8905 0.00013124 1 
8087 1 -3.9627 6.92556 -11.0666 0.000724432 1 
8142 1 -4.25092 12.1702 -14.7516 0.000137353 1 
8143 1 -6.54421 13.55 -13.7222 0.000204221 1 
8144 1 -6.25574 10.7296 -13.3046 0.000483435 1 
8145 1 -4.53565 12.5723 -11.9376 0.0010583 1 
8146 1 -4.24795 9.74721 -11.5133 0.000900459 1 
8147 1 -6.54028 11.1298 -10.5006 0.00367283 1 
8149 1 -4.52692 10.1443 -8.71081 0.00415179 1 
8150 1 -4.24293 7.31891 -8.23977 0.00363992 1 
8153 1 -4.52035 7.72564 -5.4126 0.0182865 1 
8198 1 -7.11666 19.1778 -14.5751 8.29795e-05 1 
8199 1 -6.83091 16.3642 -14.1428 0.000193667 1 
8200 1 -5.11118 18.1986 -12.775 0.000279956 1 
8201 1 -4.82479 15.3889 -12.346 0.00070527 1 
8202 1 -7.12026 16.7628 -11.3142 0.00106635 1 
8203 1 -6.83383 13.9534 -10.9017 0.00148569 1 
8204 1 -5.1126 15.7918 -9.51347 0.00509817 1 
8205 1 -4.81745 12.978 -9.13631 0.00913806 1 
8206 1 -7.13046 14.3585 -8.07937 0.0114299 1 
8207 1 -6.82025 11.5319 -7.72112 0.0277855 1 
8208 1 -5.10056 13.3826 -6.36562 0.0680572 1 
8209 1 -4.8057 10.5464 -5.9257 0.0153673 1 
8210 1 -7.09234 11.9551 -4.97811 0.246293 1 
8212 1 -5.07718 10.9764 -3.16655 0.131737 1 
8213 1 -4.76237 8.2257 -2.56537 6.12647 5 
8246 1 -5.68474 23.8354 -13.6431 0.000237261 1 
8247 1 -5.39756 21.0136 -13.214 0.000340951 1 
8248 1 -7.6903 22.3928 -12.1929 0.000596296 1 
8249 1 -7.40502 19.5726 -11.7549 0.000536555 1 
8250 1 -5.68447 21.4069 -10.4048 0.00253191 1 
8251 1 -5.3973 18.593 -9.94976 0.0013689 1 
8252 1 -7.69586 19.9631 -8.94099 0.00404497 1 
8253 1 -7.41425 17.1606 -8.47873 0.00722224 1 
8254 1 -5.68302 18.9842 -7.12719 0.00842492 1 
8255 1 -5.41764 16.1908 -6.6715 0.0589902 1 
8256 1 -7.68009 17.5375 -5.61354 0.0663403 1 
8257 1 -7.4507 14.754 -5.22903 0.129477 1 
8258 1 -5.61466 16.5629 -3.71008 0.988381 5 
8259 1 -5.36488 13.7992 -3.62027 1.4254 5 
8260 1 -7.73458 15.1854 -2.36881 5.56676 5 
8261 1 -7.37333 12.4073 -2.30655 6.3721 5 
8262 1 -5.60145 14.3261 -0.965827 7.3676 5 
10637 2 -8.16017 18.4303 -0.100326 5.66653 5 
8284 1 -6.25794 29.4714 -14.4836 0.000142168 1 
8285 1 -5.97168 26.656 -14.0611 0.000197547 1 
8286 1 -8.26081 28.0355 -13.0295 0.00031875 1 
8287 1 -7.97522 25.217 -12.6137 0.000338965 1 
8288 1 -6.26062 27.0589 -11.2322 0.00164463 1 
8289 1 -5.97364 24.2357 -10.8305 0.00148691 1 
8290 1 -8.26257 25.6209 -9.79232 0.0022678 1 
8291 1 -7.98109 22.7898 -9.38748 0.00377696 1 
8292 1 -6.26518 24.6403 -8.02464 0.0104257 1 
8293 1 -5.97038 21.8003 -7.61915 0.0186619 1 
8294 1 -8.28493 23.19 -6.6003 0.0325873 1 
8295 1 -7.98222 20.3465 -6.1521 0.0347741 1 
8296 1 -6.25908 22.2104 -4.89181 0.139684 1 
8297 1 -5.94152 19.3812 -4.31495 0.0569901 1 
8298 1 -8.27925 20.7695 -3.44389 0.241484 1 
8299 1 -7.95787 17.9747 -2.8236 0.178708 1 
8300 1 -6.21607 19.8834 -1.58141 0.531959 1 
8301 1 -5.78957 17.0813 -0.892367 1.91774 5 
8314 1 -6.54381 32.2856 -14.9142 8.38236e-05 1 
8315 1 -8.83323 33.6626 -13.8905 0.00013124 1 
8316 1 -8.54755 30.8487 -13.4541 0.000310422 1 
8317 1 -6.83185 32.682 -12.0871 0.000547006 1 
8318 1 -6.54627 29.8712 -11.6521 0.00063203 1 
8319 1 -8.83337 31.2472 -10.6181 0.00149023 1 
8320 1 -8.54493 28.4385 -10.1957 0.00178417 1 
8321 1 -6.83512 30.2701 -8.80814 0.00208237 1 
8322 1 -6.55007 27.4636 -8.38451 0.0119393 1 
8323 1 -8.82615 28.8421 -7.34949 0.0110822 1 
8324 1 -8.55275 26.0272 -6.96379 0.0374632 1 
8325 1 -6.83871 27.8646 -5.51279 0.108636 1 
8326 1 -6.54803 25.0423 -5.24256 7.17562 5 
8327 1 -8.73161 26.4414 -4.04517 5.07496 5 
8328 1 -8.55067 23.6792 -3.7987 6.08865 5 
8329 1 -5.24969 24.9427 -1.23164 11.4029 5 
8330 1 -6.58375 22.7018 -2.24665 7.9577 5 
8332 1 -8.61654 21.2018 -0.816689 10.8326 5 
8337 1 -9.40573 39.3022 -14.7516 0.000137353 1 
8338 1 -9.119 36.4815 -14.3259 0.000165899 1 
8339 1 -7.39973 38.3223 -12.9604 0.000349503 1 
8340 1 -7.1154 35.4996 -12.5296 0.000341903 1 
8341 1 -9.40276 36.8792 -11.5133 0.000900459 1 
8342 1 -9.11751 34.0575 -11.0666 0.000724432 1 
8343 1 -7.40129 35.8954 -9.71325 0.00199055 1 
8344 1 -7.12094 33.0749 -9.25041 0.00377222 1 
8345 1 -9.39774 34.4509 -8.23977 0.00363992 1 
8346 1 -9.11959 31.6451 -7.76595 0.00689597 1 
8347 1 -7.41783 33.4685 -6.39441 0.0310453 1 
8348 1 -7.13149 30.6595 -5.94606 0.00892797 1 
8349 1 -9.41714 32.0371 -4.89121 0.071703 1 
8350 1 -9.11506 29.2165 -4.47067 0.35934 1 
8351 1 -7.43629 31.0372 -3.09318 0.794871 5 
8352 1 -7.1878 28.2927 -2.43024 6.64657 5 
8353 1 -9.82067 29.525 -1.69564 7.15493 5 
8354 1 -8.02771 25.7391 -1.3266 8.57772 5 
8355 1 -9.69046 39.7043 -11.9376 0.0010583 1 
8356 1 -7.68227 38.7238 -10.15 0.00193692 1 
8357 1 -9.97226 40.11 -9.13631 0.00913806 1 
8358 1 -9.68173 37.2763 -8.71081 0.00415179 1 
8359 1 -7.96157 39.1277 -7.35056 0.0121359 1 
8360 1 -7.68324 36.2992 -6.89545 0.0121336 1 
8361 1 -9.96051 37.6783 -5.9257 0.0153673 1 
8362 1 -9.67515 34.8576 -5.4126 0.0182865 1 
8363 1 -7.95364 36.7296 -4.06897 0.121865 1 
8364 1 -7.69177 33.895 -3.5227 1.31118 5 
8365 1 -9.91718 35.3577 -2.56537 6.12647 5 
8366 1 -9.60479 32.5488 -1.99016 2.95807 5 
8367 1 -7.07801 34.6205 -0.113444 9.31439 5 
8368 1 -8.01199 30.8037 -0.384091 6.43896 5 
8369 1 -10.2554 40.5146 -6.36562 0.0680572 1 
8370 1 -8.24433 39.5193 -4.56755 0.0925056 1 
8371 1 -10.232 38.1084 -3.16655 0.131737 1 
8372 1 -8.56064 39.9794 -1.80444 9.0517 5 
8373 1 -8.06232 37.162 -1.18144 7.4486 5 
9519 2 15.8956 4.86429 -0.100326 5.66653 5 
8455 1 -1.389 5.15358 -14.9142 8.38236e-05 1 
8456 1 -1.10313 2.33943 -14.4836 0.000142168 1 
8457 1 -1.39146 2.73922 -11.6521 0.00063203 1 
8486 1 -1.96059 8.36761 -12.5296 0.000341903 1 
8487 1 -1.67704 5.55006 -12.0871 0.000547006 1 
8488 1 -1.96614 5.9429 -9.25041 0.00377222 1 
8489 1 -1.68031 3.13811 -8.80814 0.00208237 1 
8490 1 -1.97668 3.52753 -5.94606 0.00892797 1 
8537 1 -0.52795 15.4469 -14.8271 0.00013624 1 
8538 1 -0.241377 12.6303 -14.4064 9.49247e-05 1 
8539 1 -2.5316 14.0107 -13.378 0.000240579 1 
8540 1 -2.24492 11.1904 -12.9604 0.000349503 1 
8541 1 -0.525811 13.033 -11.5859 0.000540655 1 
8542 1 -0.242669 10.2089 -11.1683 0.000861609 1 
8543 1 -2.52747 11.5918 -10.15 0.00193692 1 