ITEM: TIMESTEP
0
ITEM: NUMBER OF ATOMS
15676
ITEM: BOX BOUNDS xy xz yz pp pp ss
-3.4603215169000002e+01 6.9206430337000000e+01 -3.4603215169000002e+01
0.0000000000000000e+00 1.2633143908000000e+02 0.0000000000000000e+00
-8.6100394812138063e+01 8.8440540135304573e+01 0.0000000000000000e+00
ITEM: ATOMS id type x y z c_csym c_cna 
91104 2 -2.20724 57.2083 0.397905 4.32332 5 
2 1 0.115191 0.0601178 -3.06909 0.362045 1 
3 1 2.15732 1.30541 -1.09372 2.63172 5 
4 1 0.672565 3.85591 -2.08838 5.59896 5 
5 1 0.745005 6.82807 -0.695125 5.40748 5 
6 1 0.891338 13.5559 -0.599767 5.51256 5 
76980 2 21.163 25.9862 0.937144 4.31589 5 
8 1 8.0755 1.19246 -1.0086 2.11597 5 
9 1 5.14939 1.22464 -1.04264 1.58409 5 
10 1 6.473 3.44097 -1.92171 0.444475 1 
11 1 6.51576 7.28106 -0.897881 0.665622 1 
90047 2 -4.91443 44.3293 0.771301 5.23475 5 
13 1 2.95713 0.435944 -5.73112 0.0235421 1 
14 1 4.65424 1.82892 -3.80458 0.33966 1 
15 1 1.81555 2.12696 -3.861 0.151231 1 
16 1 3.5651 3.5239 -1.94855 0.653669 1 
17 1 3.42914 4.3049 -4.72153 0.03502 1 
18 1 5.05591 5.76185 -2.81177 0.209858 1 
19 1 2.20551 5.99219 -2.88235 1.32677 5 
20 1 3.60095 7.21869 -0.856578 0.79933 1 
21 1 3.77598 8.17208 -3.70047 0.346155 1 
22 1 5.2163 9.53467 -1.76798 2.45393 5 
23 1 2.23801 9.4806 -1.72935 2.73177 5 
24 1 4.3324 11.9865 -2.60642 4.55171 5 
25 1 6.64491 13.8117 -0.706699 2.3418 5 
26 1 3.73772 13.8045 -0.729091 1.88802 5 
27 1 4.97669 16.0874 -1.61698 0.418256 1 
28 1 5.01591 19.9399 -0.618344 0.505059 1 
29 1 0.0930178 0.767421 -5.7883 0.0315351 1 
30 1 0.0678713 1.51844 -8.52041 0.00937895 1 
31 1 1.75567 2.91301 -6.63814 0.0119457 1 
32 1 0.561637 4.6217 -4.80839 0.0301693 1 
33 1 0.532818 5.40837 -7.52189 0.0139929 1 
34 1 2.18441 6.78506 -5.6283 0.0292998 1 
35 1 0.894734 8.45587 -3.79957 2.72867 5 
36 1 0.977657 9.29294 -6.47092 0.0309896 1 
37 1 2.65172 10.6186 -4.56233 0.387118 1 
38 1 1.60002 12.1403 -2.63441 5.41753 5 
39 1 1.4545 13.1871 -5.33871 0.216827 1 
40 1 3.15675 14.5136 -3.4695 0.49066 1 
41 1 0.206134 14.6787 -3.25164 6.71152 5 
42 1 2.03293 16.091 -1.56479 1.39912 5 
43 1 1.84549 17.0003 -4.26989 0.567095 1 
44 1 3.50564 18.449 -2.49009 0.367438 1 
45 1 0.62339 18.9411 -2.55067 1.04423 5 
46 1 2.05967 20.0557 -0.630863 2.60177 5 
47 1 2.26104 21.0076 -3.42718 0.494827 5 
48 1 3.68787 22.2603 -1.50092 2.34788 5 
49 1 0.714314 23.1061 -1.92629 10.7685 5 
50 1 2.81663 24.7202 -2.46849 8.73312 5 
51 1 5.40269 26.4147 -0.44271 5.16265 5 
52 1 2.59529 26.3004 -0.408466 6.08857 5 
53 1 3.63878 28.6998 -1.34909 0.815115 1 
54 1 3.63746 32.4375 -0.327776 0.970166 5 
55 1 0.263042 15.6649 -6.17436 0.163794 1 
56 1 0.738397 19.5913 -5.30405 0.127966 1 
57 1 1.16628 23.5297 -4.47839 5.73336 5 
58 1 0.0135884 25.8983 -1.10204 8.26002 5 
59 1 0.0584397 25.9633 -5.13822 5.27221 5 
60 1 1.79868 27.2157 -3.21292 3.04921 5 
61 1 0.672967 28.7643 -1.36953 2.62502 5 
62 1 0.542898 29.7712 -4.08235 0.199108 1 
63 1 2.17644 31.0971 -2.23147 0.449293 1 
64 1 0.707075 32.6376 -0.355658 4.05688 5 
65 1 1.0525 33.5991 -3.20979 0.3844 1 
66 1 2.58089 34.7883 -1.25477 5.71485 5 
67 1 1.71147 37.5253 -2.17157 1.55298 5 
68 1 3.59227 38.9292 -0.213371 0.946337 5 
69 1 0.516132 38.5662 -0.0681794 6.41568 5 
70 1 1.98357 41.2203 -1.03094 0.74668 5 
71 1 0.343424 39.9971 -2.89835 0.694293 5 
72 1 0.6986 43.8395 -1.96157 0.477289 5 
73 1 1.07466 47.7612 -1.22877 5.79577 5 
74 1 0.175105 50.2874 -2.16336 5.25235 5 
75 1 0.56998 53.63 -0.795897 1.5629 5 
76 1 13.8675 1.08181 -1.31466 9.3504 5 
77 1 10.9557 1.14785 -1.00187 5.8149 5 
78 1 12.2181 3.17528 -2.0837 3.23897 5 
79 1 12.2984 7.21308 -1.01487 3.2746 5 
81 1 10.2551 1.38806 -3.8204 1.07875 5 
82 1 7.45885 1.60063 -3.78794 0.697567 5 
83 1 9.36091 3.36606 -1.9246 0.589975 1 
84 1 9.10401 3.82192 -4.74447 0.154906 1 
85 1 10.802 5.46613 -2.90232 0.353589 1 
86 1 7.92861 5.63628 -2.83425 0.158501 1 
87 1 9.44141 7.25362 -0.941784 1.06416 5 
88 1 9.50128 7.78257 -3.79734 0.0972007 1 
89 1 11.0561 9.37536 -1.93554 5.32175 5 
90 1 8.16771 9.47744 -1.81741 5.09445 5 
91 1 9.90108 11.7022 -2.67429 5.59163 5 
92 1 12.3866 13.9718 -0.316199 12.0755 5 
93 1 9.53625 13.7732 -0.689356 4.98284 5 
94 1 10.7178 15.8374 -1.77789 1.37574 5 
95 1 10.9917 19.6745 -0.749082 3.12071 5 
96 1 5.79268 0.145918 -5.72806 0.0310593 1 
97 1 5.76616 0.889105 -8.53179 0.00456137 1 
98 1 7.43371 2.32668 -6.6281 0.0147441 1 
99 1 4.60575 2.60979 -6.61187 0.0094836 1 
100 1 6.27709 4.05978 -4.71334 0.0655334 1 
101 1 6.23398 4.78346 -7.51996 0.00659636 1 
102 1 7.88064 6.24984 -5.64614 0.0273454 1 
103 1 5.04121 6.50383 -5.60601 0.0218397 1 
104 1 6.63918 7.98163 -3.7161 0.114366 1 
105 1 6.67839 8.69314 -6.50997 0.0102719 1 
106 1 8.31159 10.1778 -4.63273 0.0537033 1 
107 1 5.48306 10.3965 -4.57532 0.107949 1 
108 1 7.09912 11.8434 -2.59813 4.96549 5 
109 1 7.15382 12.6117 -5.4473 0.0320374 1 
110 1 8.82718 14.1085 -3.50963 0.876778 5 
111 1 6.00141 14.3052 -3.47045 0.643962 5 
112 1 7.88805 16.0238 -1.61652 0.564425 1 
113 1 7.62609 16.5258 -4.43665 0.130709 1 
114 1 9.32516 18.1328 -2.61581 0.161047 1 
115 1 6.43431 18.3093 -2.52393 0.154985 1 
116 1 8.0129 19.8939 -0.640708 1.25281 5 
117 1 8.03816 20.4624 -3.47166 0.0984969 1 
118 1 9.71686 21.9889 -1.54997 6.30537 5 
119 1 6.71646 22.1257 -1.51087 5.19829 5 
120 1 8.48315 24.3035 -2.36307 6.14108 2 
121 1 11.1057 26.7634 -0.0171581 5.77287 5 
122 1 8.31607 26.442 -0.417301 5.53822 2 
123 1 9.54051 28.6682 -1.23747 2.53903 5 
124 1 9.52845 32.4897 -0.363221 2.7584 5 
88232 2 56.891 32.1114 1.0363 0.658738 1 
127 1 2.92869 1.19568 -8.51445 0.00441395 1 
128 1 2.90866 1.93607 -11.2882 0.0015626 1 
129 1 4.57515 3.35446 -9.40584 0.00293682 1 
130 1 1.72785 3.6729 -9.39238 0.00401947 1 
131 1 3.39481 5.08062 -7.50339 0.00817398 1 
132 1 3.37791 5.83084 -10.2719 0.0022465 1 
133 1 5.03365 7.25216 -8.3903 0.00444422 1 
134 1 2.18714 7.56908 -8.36859 0.00660779 1 
135 1 3.83911 8.96828 -6.47364 0.0191458 1 
136 1 3.8391 9.73282 -9.23462 0.00447975 1 
137 1 5.49362 11.1582 -7.34871 0.00743592 1 
138 1 2.64811 11.4661 -7.29179 0.0226826 1 
139 1 4.31974 12.8708 -5.40653 0.0418419 1 
140 1 4.30319 13.6234 -8.18804 0.00431018 1 
141 1 5.96039 15.0514 -6.30127 0.0152128 1 
142 1 3.10989 15.3477 -6.23676 0.0329049 1 
143 1 4.76765 16.7663 -4.37759 0.0845444 1 
144 1 4.76472 17.5 -7.1816 0.00541245 1 
145 1 6.40471 18.9506 -5.32466 0.025394 1 
146 1 3.54667 19.2106 -5.2588 0.0758828 1 
147 1 5.14792 20.6739 -3.40409 0.135508 1 
148 1 5.23125 21.3855 -6.21767 0.0283239 1 
149 1 6.8606 22.8446 -4.34311 0.100753 1 
150 1 4.03662 23.097 -4.33955 0.22249 1 
151 1 5.60811 24.4506 -2.35997 5.88385 2 
152 1 5.76459 25.3019 -5.17855 0.070177 1 
153 1 7.44694 26.7311 -3.20114 5.45197 5 
154 1 4.64066 26.9663 -3.19568 0.968388 5 
155 1 6.60713 28.6558 -1.33257 1.11804 5 
156 1 6.30878 29.1951 -4.13116 0.163292 1 
157 1 8.01887 30.8145 -2.27089 0.509909 1 
158 1 5.10736 30.9259 -2.25003 0.283856 1 
159 1 6.5877 32.4635 -0.357029 1.213 5 
160 1 6.74353 33.1316 -3.18159 0.105032 1 
161 1 8.30939 34.6774 -1.26067 5.51487 5 
162 1 5.41564 34.7252 -1.24624 5.19353 5 
163 1 7.20556 37.0193 -2.06638 5.33886 5 
164 1 7.94163 41.1804 -1.06443 0.615538 1 
165 1 1.23857 0.517526 -13.1543 0.00101417 1 
166 1 0.0529483 2.2615 -11.2562 0.00330348 1 
167 1 0.0453895 2.99267 -14.0006 0.00109544 1 
168 1 1.71348 4.4131 -12.1442 0.0014499 1 
169 1 0.523401 6.16204 -10.2431 0.00434328 1 
170 1 0.518091 6.89397 -12.9814 0.00148926 1 
171 1 2.18133 8.31467 -11.1154 0.00220962 1 
172 1 0.988785 10.0666 -9.18734 0.00842099 1 
173 1 0.988462 10.7919 -11.943 0.0016679 1 
174 1 2.64823 12.2067 -10.0681 0.00267835 1 
175 1 1.45797 13.9429 -8.12047 0.00491917 1 
176 1 1.45932 14.6713 -10.9117 0.00108684 1 
177 1 3.11557 16.0805 -9.0459 0.00210449 1 
178 1 0.26993 16.4082 -8.9776 0.0119661 1 
179 1 1.92661 17.8084 -7.12378 0.0411074 1 
180 1 1.93493 18.5446 -9.9259 0.00574049 1 
181 1 3.59187 19.9606 -8.07743 0.0125312 1 
182 1 0.755394 20.3032 -8.06172 0.0207994 1 
183 1 2.41581 21.7103 -6.21516 0.0714412 1 
184 1 2.42546 22.4536 -8.96429 0.00670639 1 
185 1 4.08584 23.8833 -7.08388 0.0170196 1 
186 1 1.2432 24.2333 -7.10239 0.0998231 1 
187 1 2.92492 25.6228 -5.1655 0.11613 1 
188 1 2.92744 26.3631 -7.93442 0.0113174 1 
189 1 4.61196 27.7615 -6.02544 0.0251575 1 
190 1 1.75669 28.0903 -6.0068 0.0343583 1 
191 1 3.43898 29.4412 -4.11329 0.078029 1 
192 1 3.4278 30.2182 -6.92032 0.00838708 1 
193 1 5.10009 31.6319 -5.04651 0.0216342 1 
194 1 2.2468 31.9051 -5.03305 0.0435276 1 
195 1 3.88522 33.3038 -3.16897 0.166601 1 
196 1 3.91306 34.1059 -5.92982 0.01249 1 
197 1 5.57706 35.548 -4.05184 0.0728587 1 
198 1 2.7413 35.8003 -4.02393 0.154672 1 
199 1 4.43187 37.1639 -2.0735 1.82205 5 
200 1 4.41125 38.0175 -4.8712 0.035016 1 
201 1 6.09474 39.4711 -2.94762 0.404845 1 
202 1 3.26616 39.725 -2.96841 0.211148 1 
203 1 4.97175 41.2109 -1.07373 0.288106 1 
204 1 4.87468 41.9173 -3.85383 0.0441887 1 
205 1 6.50185 43.441 -1.97167 0.154883 1 
206 1 3.56479 43.5553 -1.94735 0.180623 1 
207 1 5.23516 45.7787 -2.88495 0.0873311 1 
208 1 6.75778 47.2801 -0.99327 5.11796 5 
209 1 3.85887 47.351 -0.979526 2.78869 5 
210 1 5.67044 49.6171 -1.82294 5.43348 5 
211 1 6.52204 53.8116 -0.797463 0.820188 1 
212 1 0.273846 17.135 -11.7699 0.00157363 1 
213 1 0.758622 21.0277 -10.8095 0.00615346 1 
214 1 1.24955 24.9433 -9.81267 0.0124585 1 
215 1 0.0704545 26.7002 -7.88045 0.0234873 1 
216 1 0.0657689 27.4026 -10.6452 0.00308531 1 
217 1 1.74591 28.82 -8.79309 0.0029724 1 
218 1 0.569464 30.547 -6.88915 0.015627 1 
219 1 0.561841 31.2827 -9.66168 0.00339913 1 
220 1 2.24292 32.6917 -7.80558 0.00765937 1 
221 1 1.07472 34.4275 -5.93866 0.032865 1 
222 1 1.05765 35.1786 -8.67872 0.00649061 1 
223 1 2.73562 36.5982 -6.78675 0.0138869 1 
224 1 1.57151 38.3463 -4.88893 0.078537 1 
225 1 1.5422 39.0743 -7.65668 0.00693346 1 
226 1 3.21579 40.4835 -5.75607 0.0121538 1 
227 1 0.356637 40.7918 -5.72966 0.0341104 1 
228 1 1.99653 42.1618 -3.83536 0.075559 1 
229 1 2.00219 42.9238 -6.65336 0.00933336 1 
230 1 3.64576 44.3307 -4.77162 0.0271631 1 
231 1 0.792341 44.6272 -4.79836 0.0561372 1 
232 1 2.38976 46.0056 -2.92548 0.164421 1 
233 1 2.46371 46.7883 -5.71302 0.0313088 1 
234 1 4.10662 48.2041 -3.8169 0.13243 1 
235 1 1.29155 48.5231 -3.92389 0.157337 1 
236 1 2.9421 49.8171 -1.8977 4.47663 5 
237 1 2.95329 50.7002 -4.66536 0.0558822 1 
238 1 4.64629 52.115 -2.69045 0.603209 5 
239 1 1.86251 52.3705 -2.77431 0.548762 1 
240 1 3.54488 53.7777 -0.803398 0.408847 1 
241 1 3.40795 54.5759 -3.59214 0.0833553 1 
242 1 4.99836 56.0658 -1.68239 0.154486 1 
243 1 2.0897 56.0979 -1.66752 0.175342 1 
244 1 3.64703 58.4315 -2.55675 0.0840747 1 
245 1 5.11326 59.9443 -0.663283 0.783508 1 
246 1 2.16625 59.9837 -0.677916 0.409873 1 
247 1 3.79676 62.2175 -1.50005 2.64206 5 
249 1 0.335536 41.5235 -8.52717 0.00478499 1 
250 1 0.800972 45.3872 -7.57619 0.011349 1 
251 1 1.28214 49.2973 -6.61481 0.0212031 1 
252 1 0.0928423 51.0413 -4.78494 0.0852503 1 
253 1 0.0698515 51.7882 -7.4595 0.0173708 1 
254 1 1.74066 53.1828 -5.53041 0.0339955 1 
255 1 0.532613 54.8348 -3.62731 0.354539 1 
256 1 0.499738 55.6489 -6.37055 0.022015 1 
257 1 2.11723 57.0174 -4.46219 0.0722899 1 
258 1 0.760381 58.5352 -2.55368 0.251409 1 
259 1 0.877253 59.4948 -5.30198 0.0831545 1 
260 1 2.36699 60.8827 -3.39463 0.367884 1 
87277 2 39.6308 55.3559 1.10192 0.116983 1 
289 1 16.2685 1.52882 -0.155893 13.2482 5 
290 1 17.625 2.21806 -2.29752 11.0526 5 
291 1 19.652 3.27146 -0.501504 6.24306 5 
292 1 17.9738 5.49525 -1.37669 6.13129 5 
293 1 18.1076 9.58934 -0.504961 5.25261 5 
294 1 15.841 0.641896 -3.89561 7.18322 5 
295 1 13.0571 1.05874 -3.97613 4.87684 5 
296 1 15.0061 3.68498 -1.27039 11.6121 5 
297 1 14.7192 3.11097 -5.01655 2.78215 5 
298 1 16.3932 4.56815 -3.37685 5.62306 5 
299 1 13.5835 5.07883 -3.27373 5.58776 5 
300 1 15.0889 6.49459 -1.5712 11.9591 5 
301 1 15.1645 7.11582 -4.24699 0.34635 1 
302 1 16.7676 8.3894 -2.44227 4.6396 5 
303 1 13.8893 9.03564 -2.21322 8.2769 5 
304 1 15.6174 11.0093 -3.03489 4.22555 5 
305 1 17.2762 12.3904 -1.06041 9.75824 5 
306 1 15.209 13.9546 0.0768031 11.1871 5 
307 1 16.249 14.7861 -2.26445 5.2202 5 
308 1 17.9374 15.6749 -0.191382 7.44219 5 
309 1 15.1843 16.6661 -0.529891 10.0349 5 
310 1 16.6289 18.7918 -1.32483 5.79281 5 
311 1 16.8955 22.8056 -0.398802 5.67674 5 
85486 2 46.3936 21.9606 0.936954 11.751 5 
313 1 11.4067 0.270468 -8.67336 0.00405499 1 
314 1 13.0566 1.69134 -6.82167 0.0217679 1 
315 1 10.2387 2.02547 -6.69974 0.0289636 1 
316 1 11.9036 3.50657 -4.9038 0.275836 1 
317 1 11.8748 4.16518 -7.69954 0.0200696 1 
318 1 13.5251 5.63837 -5.96576 0.130124 1 
319 1 10.706 5.96877 -5.74463 0.0611426 1 
320 1 12.3473 7.49247 -3.95038 0.236557 1 
321 1 12.3338 8.11602 -6.73292 0.0134848 1 
322 1 13.9739 9.59982 -4.94044 0.0707519 1 
323 1 11.1392 9.9122 -4.75864 0.0500478 1 
324 1 12.7079 11.4565 -2.94063 6.33159 5 
325 1 12.7881 12.0298 -5.74432 0.0623718 1 
326 1 14.4706 13.4376 -3.97703 2.10573 5 
327 1 11.6382 13.8563 -3.65262 1.79672 5 
328 1 13.5096 15.3571 -2.19558 7.90937 5 
329 1 13.2906 15.9498 -4.8571 0.196882 1 
330 1 15.0047 17.4287 -3.13839 0.408588 1 
331 1 12.1822 17.8243 -2.90226 0.138437 1 
332 1 13.806 19.3273 -1.12429 9.3737 5 
333 1 13.7687 19.8589 -3.91573 0.0731682 1 
334 1 15.4263 21.2573 -2.11613 6.35454 5 
335 1 12.5178 21.6187 -1.96013 4.80187 5 
336 1 14.194 23.0664 -0.467384 12.3541 5 
337 1 14.205 23.6897 -3.11231 0.24295 1 
338 1 15.8205 25.2689 -1.35535 0.78711 1 
339 1 12.9296 25.4207 -1.40744 12.0484 5 
340 1 14.5324 27.5952 -2.25195 6.28575 5 
341 1 15.5765 29.2609 -0.424695 6.32034 5 
342 1 15.1538 31.6781 -1.22431 8.51396 5 
343 1 8.58653 0.583967 -8.58528 0.00426442 1 
344 1 8.57908 1.30214 -11.3924 0.00121713 1 
345 1 10.2297 2.72878 -9.52475 0.00444436 1 
346 1 7.40617 3.04419 -9.44754 0.00351072 1 
347 1 9.0572 4.4866 -7.57877 0.0123121 1 
348 1 9.04747 5.19625 -10.3843 0.00225923 1 
349 1 10.6937 6.64083 -8.5434 0.0060104 1 
350 1 7.86577 6.94928 -8.44752 0.00416436 1 
351 1 9.5054 8.41539 -6.59765 0.00935958 1 
352 1 9.50762 9.10709 -9.38695 0.00222789 1 
353 1 11.1468 10.5672 -7.5511 0.00819411 1 
354 1 8.32296 10.8691 -7.42731 0.0058477 1 
355 1 9.96947 12.3444 -5.54249 0.0379124 1 
356 1 9.97098 13.0148 -8.3692 0.00623503 1 
357 1 11.6176 14.4604 -6.53287 0.0590897 1 
358 1 8.78916 14.7666 -6.39037 0.0248974 1 
359 1 10.4545 16.262 -4.5946 0.155798 1 
360 1 10.4357 16.9031 -7.40643 0.0115387 1 
361 1 12.0891 18.3908 -5.65514 0.0377277 1 
362 1 9.24045 18.6757 -5.45395 0.0368582 1 
363 1 10.8799 20.1822 -3.67456 0.0988217 1 
364 1 10.885 20.8029 -6.48768 0.0182826 1 
365 1 12.5315 22.245 -4.76419 0.0634788 1 
366 1 9.65238 22.5406 -4.52334 0.212252 1 
367 1 11.2468 23.9552 -2.82742 6.56046 5 
368 1 11.3331 24.6728 -5.5673 0.466403 1 
369 1 12.9757 26.1406 -3.97472 5.77687 5 
370 1 10.3002 26.5415 -3.11379 7.31494 5 
371 1 12.4575 29.0098 -0.802286 6.69963 5 
372 1 11.9049 28.6241 -4.43564 6.10475 5 
373 1 13.6189 30.1721 -2.89118 4.83551 5 
374 1 10.8299 30.5433 -2.58356 3.54861 5 
375 1 12.3291 32.0553 -0.868323 7.02219 5 
376 1 12.3768 32.6303 -3.61251 0.305172 1 
377 1 13.9865 34.1223 -1.95098 6.08642 5 
378 1 11.2567 34.5621 -1.19784 8.09373 5 
379 1 12.805 36.5217 -2.47907 6.68164 5 
380 1 14.544 38.0093 -1.08136 7.91904 5 
381 1 13.6223 40.6713 -1.51966 6.59481 5 
77095 2 17.5863 44.0329 1.10201 10.1573 5 
383 1 4.08564 0.195222 -13.2043 0.00068029 1 
384 1 5.74834 1.61813 -11.3289 0.00138483 1 
385 1 5.73932 2.34295 -14.1146 0.000447853 1 
386 1 7.39607 3.76728 -12.2461 0.000962068 1 
387 1 4.55973 4.08785 -12.1878 0.000942887 1 
388 1 6.2167 5.5122 -10.3144 0.00185766 1 
389 1 6.20928 6.2372 -13.0993 0.000581969 1 
390 1 7.86142 7.66591 -11.2376 0.00109621 1 
391 1 5.02549 7.98647 -11.1675 0.00132149 1 
392 1 6.67676 9.41745 -9.2961 0.00235277 1 
393 1 6.67542 10.1346 -12.0833 0.000788117 1 
394 1 8.3248 11.5692 -10.2241 0.00166189 1 
395 1 5.48955 11.8836 -10.138 0.00168568 1 
396 1 7.1393 13.3175 -8.2632 0.00434806 1 
397 1 7.1408 14.0254 -11.0697 0.00127897 1 
398 1 8.7877 15.4572 -9.21861 0.00479861 1 
399 1 5.95335 15.7666 -9.12054 0.00276489 1 
400 1 7.59866 17.2034 -7.26962 0.0084399 1 
401 1 7.6055 17.9089 -10.0834 0.00251958 1 
402 1 9.24788 19.3472 -8.26588 0.00620144 1 
403 1 6.4163 19.6514 -8.14643 0.00636999 1 
404 1 8.04479 21.0953 -6.31716 0.0276118 1 
405 1 8.07011 21.8079 -9.11173 0.00712812 1 
406 1 9.70441 23.244 -7.31124 0.0488797 1 
407 1 6.91119 23.5717 -7.13117 0.0316208 1 
408 1 8.5911 25.0266 -5.21419 0.251349 1 
409 1 8.57128 25.7173 -8.07515 0.0302353 1 
410 1 10.238 27.1513 -6.19268 0.256379 1 
411 1 7.43102 27.4546 -6.0858 0.0153698 1 
412 1 9.11055 28.9055 -4.19757 0.610018 5 
413 1 9.06134 29.6069 -7.06312 0.0351552 1 
414 1 10.7108 31.0955 -5.31807 0.106628 1 
415 1 7.93707 31.3837 -5.09054 0.0805368 1 
416 1 9.6111 32.9541 -3.21675 0.372345 1 
417 1 9.54791 33.558 -6.0761 0.0399519 1 
418 1 11.1891 35.0585 -4.22268 0.175089 1 
419 1 8.39674 35.3261 -4.09422 0.0574861 1 
420 1 10.0246 36.8569 -2.11514 5.92423 5 
421 1 10.0481 37.5049 -4.98042 0.0917466 1 
422 1 11.7486 39.0517 -2.94367 2.79999 5 
423 1 8.92184 39.2688 -2.96593 0.891141 5 
424 1 10.8835 41.2076 -0.999661 2.07463 5 
425 1 10.5664 41.4466 -3.90571 0.611624 5 
426 1 12.4555 43.3222 -1.67121 9.83371 5 
427 1 9.43024 43.3271 -1.99496 0.464118 5 
428 1 10.9778 45.3867 -2.9814 0.674738 1 
429 1 12.5146 47.0053 -1.18703 8.97958 5 
430 1 9.672 47.2682 -1.01728 5.21158 5 
431 1 11.3989 49.4589 -1.74801 7.28277 5 
432 1 12.3681 54.0841 -0.311042 11.1418 5 
71792 2 4.2735 49.208 0.936385 5.00105 5 
436 1 2.89712 2.66592 -14.0567 0.000532499 1 
438 1 4.55201 4.81282 -14.9639 0.000300475 1 
439 1 1.70614 5.13989 -14.9014 0.000495616 1 
440 1 3.36821 6.563 -13.0382 0.000731215 1 
442 1 5.02152 8.70812 -13.9462 0.000421912 1 
443 1 2.17717 9.03743 -13.8777 0.000637991 1 
444 1 3.83564 10.4595 -12.0101 0.00103465 1 
445 1 3.83409 11.1762 -14.7899 0.00027786 1 
446 1 5.48959 12.5991 -12.9292 0.000520173 1 
447 1 2.64724 12.9262 -12.8517 0.000557819 1 
448 1 4.30287 14.3443 -10.9866 0.000899443 1 
449 1 4.30451 15.0616 -13.7795 0.000294025 1 
450 1 5.95764 16.4827 -11.9262 0.000914412 1 
451 1 3.11879 16.8051 -11.8454 0.000744797 1 
452 1 4.77222 18.2232 -9.9928 0.00195924 1 
453 1 4.7775 18.9475 -12.7861 0.000617671 1 
454 1 6.42803 20.3741 -10.9425 0.00184299 1 
455 1 3.59904 20.696 -10.8627 0.00233633 1 
456 1 5.25426 22.1288 -9.00447 0.00659762 1 
457 1 5.25778 22.8482 -11.7935 0.00137251 1 
458 1 6.91339 24.282 -9.93885 0.00543586 1 
459 1 4.08944 24.606 -9.86265 0.00240996 1 
460 1 5.75657 26.0325 -7.98277 0.00526299 1 
461 1 5.74803 26.7498 -10.7836 0.00184785 1 
462 1 7.40882 28.176 -8.91533 0.00512854 1 
463 1 4.58863 28.4946 -8.83943 0.00465376 1 
464 1 6.26104 29.9171 -6.9601 0.0116186 1 
465 1 6.23696 30.6414 -9.77352 0.00317606 1 
466 1 7.89576 32.0806 -7.91761 0.0116866 1 
467 1 5.07872 32.3819 -7.84134 0.00441644 1 
468 1 6.74272 33.829 -5.97356 0.011935 1 
469 1 6.72355 34.5521 -8.76448 0.00415351 1 
470 1 8.38463 36.0185 -6.88879 0.0135946 1 
471 1 5.56825 36.2989 -6.81954 0.00766488 1 
472 1 7.24005 37.7627 -4.90548 0.0226582 1 
473 1 7.21048 38.4642 -7.72387 0.00871244 1 
474 1 8.88108 39.9319 -5.82012 0.0274531 1 
475 1 6.05604 40.1977 -5.76959 0.0113316 1 
476 1 7.72617 41.684 -3.87181 0.0973731 1 
477 1 7.67935 42.3537 -6.7095 0.00967834 1 
478 1 9.33323 43.8366 -4.83456 0.0547355 1 
479 1 6.50104 44.092 -4.78271 0.0238799 1 
480 1 8.1184 45.6219 -2.91024 0.106448 1 
481 1 8.13367 46.2631 -5.71816 0.0209933 1 
482 1 9.76909 47.784 -3.82815 0.154336 1 
483 1 6.92337 47.9912 -3.80825 0.0729087 1 
484 1 8.48449 49.5218 -1.8331 6.08743 2 
485 1 8.56967 50.1803 -4.6918 0.0439142 1 
486 1 10.1894 51.7131 -2.73113 5.53093 5 
487 1 7.41053 51.9188 -2.671 1.36497 5 
488 1 9.48154 53.7949 -0.767079 2.06733 5 
489 1 9.07454 54.1452 -3.60173 0.380921 1 
490 1 10.812 55.8839 -1.73449 2.1476 5 
491 1 7.93118 56.0144 -1.68865 0.323598 1 
492 1 9.50666 58.1878 -2.59316 1.05121 5 
493 1 11.0718 60.2647 -0.296833 11.3861 5 
494 1 8.05507 59.9058 -0.722608 2.10287 5 
495 1 9.69634 61.7766 -2.02629 8.40927 5 
505 1 0.988252 11.5061 -14.7135 0.000379081 1 
508 1 1.46103 15.3894 -13.6995 0.000265341 1 
510 1 3.12136 17.5259 -14.6337 0.000215988 1 
511 1 0.277328 17.8544 -14.5526 0.000293084 1 
512 1 1.93866 19.2731 -12.7098 0.00114032 1 
514 1 3.59968 21.4193 -13.6429 0.000407826 1 
515 1 0.757703 21.7494 -13.5673 0.000908319 1 
516 1 2.42369 23.1766 -11.7242 0.00129335 1 
517 1 2.4212 23.8922 -14.4947 0.000203225 1 
518 1 4.08506 25.3209 -12.6442 0.000552067 1 
519 1 1.24451 25.6501 -12.5709 0.00124026 1 
520 1 2.91597 27.0764 -10.7154 0.00162151 1 
521 1 2.90668 27.7889 -13.4948 0.000324467 1 
522 1 4.57319 29.2151 -11.6366 0.00114744 1 
523 1 1.73376 29.5384 -11.571 0.000824178 1 
524 1 3.40831 30.9585 -9.71064 0.00198855 1 
525 1 3.39324 31.6816 -12.4937 0.000618379 1 
526 1 5.06027 33.1112 -10.6316 0.00165892 1 
527 1 2.22531 33.4292 -10.5762 0.00170553 1 
528 1 3.89869 34.8574 -8.70426 0.00352051 1 
529 1 3.87878 35.5793 -11.4881 0.00117092 1 
530 1 5.54533 37.0157 -9.61414 0.00288904 1 
531 1 2.71258 37.3277 -9.56576 0.00253861 1 
532 1 4.38492 38.7561 -7.67418 0.00589766 1 
533 1 4.35889 39.4721 -10.4766 0.0017949 1 
534 1 6.02166 40.9053 -8.59425 0.00384072 1 
535 1 3.1886 41.2091 -8.55719 0.00251377 1 
536 1 4.85113 42.6342 -6.66959 0.00583763 1 
537 1 4.8299 43.3559 -9.47698 0.00236753 1 
538 1 6.48504 44.7942 -7.59878 0.00559873 1 
539 1 3.65127 45.0793 -7.57451 0.00651458 1 
540 1 5.30069 46.5133 -5.69343 0.0178786 1 
541 1 5.29087 47.2512 -8.48167 0.00357506 1 
542 1 6.93594 48.702 -6.5978 0.00906484 1 
543 1 4.11744 48.9875 -6.57284 0.0113628 1 
544 1 5.77425 50.435 -4.65156 0.0426814 1 
545 1 5.75479 51.1659 -7.44525 0.00847912 1 
546 1 7.40915 52.6253 -5.52304 0.0339372 1 
547 1 4.5893 52.8918 -5.50133 0.0204645 1 
548 1 6.25995 54.3714 -3.5828 0.132937 1 
549 1 6.20424 55.0652 -6.39848 0.0217095 1 
550 1 7.85501 56.5621 -4.499 0.128018 1 
551 1 4.97915 56.7787 -4.47508 0.0380339 1 
552 1 6.54116 58.2864 -2.59022 0.137712 1 
553 1 6.57205 58.9302 -5.42882 0.0726977 1 
554 1 8.1416 60.3544 -3.6657 0.579742 1 
555 1 5.29715 60.6647 -3.44967 0.188036 1 
556 1 6.85905 62.1461 -1.5593 5.5099 5 
571 1 0.0618711 28.1134 -13.4171 0.000503504 1 
573 1 1.72472 30.2544 -14.3467 0.000235683 1 
574 1 0.549865 32.0048 -12.4289 0.000805681 1 
576 1 2.20971 34.1492 -13.35 0.000476487 1 
577 1 1.03728 35.9009 -11.4363 0.00145973 1 
578 1 1.02234 36.6157 -14.2055 0.000348551 1 
579 1 2.69169 38.0435 -12.3479 0.000737235 1 
580 1 1.51754 39.7896 -10.4339 0.00137405 1 
581 1 1.49991 40.5058 -13.2104 0.000513697 1 
582 1 3.16717 41.9298 -11.3489 0.00109672 1 
583 1 0.31843 42.2475 -11.3033 0.00145537 1 
584 1 1.98827 43.6623 -9.44521 0.00307807 1 
585 1 1.97264 44.3926 -12.2207 0.00111329 1 
586 1 3.63611 45.8173 -10.3578 0.00204661 1 
587 1 0.790293 46.1322 -10.3307 0.00352596 1 
588 1 2.45879 47.5536 -8.4685 0.0061743 1 
589 1 2.44243 48.2912 -11.2267 0.00183825 1 
590 1 4.10124 49.7243 -9.34576 0.00351167 1 
591 1 1.26115 50.0398 -9.33661 0.00554137 1 
592 1 2.92685 51.4672 -7.43274 0.00967185 1 
593 1 2.90447 52.1971 -10.2018 0.00261187 1 
594 1 4.55743 53.6241 -8.3035 0.00645471 1 
595 1 1.71449 53.9382 -8.2882 0.00678403 1 
596 1 3.36006 55.3445 -6.37955 0.0124137 1 
597 1 3.34664 56.0878 -9.16196 0.00402756 1 
598 1 4.97216 57.506 -7.27801 0.0129448 1 
599 1 2.13307 57.8136 -7.22693 0.0114646 1 
600 1 3.72954 59.2291 -5.32756 0.0480566 1 
601 1 3.78188 59.979 -8.1108 0.00692968 1 
602 1 5.41937 61.4041 -6.22968 0.037416 1 
603 1 2.56201 61.6996 -6.15306 0.0393525 1 
625 1 0.305894 42.9699 -14.0718 0.000557817 1 
626 1 0.777332 46.8641 -13.0843 0.00116503 1 
627 1 1.24469 50.7688 -12.079 0.00160025 1 
628 1 0.0537237 52.5208 -10.1747 0.00430027 1 
629 1 0.0456383 53.2454 -12.9141 0.00120613 1 
630 1 1.70156 54.6701 -11.0457 0.00183833 1 
631 1 0.500322 56.412 -9.11712 0.00443387 1 
632 1 0.50444 57.1443 -11.8725 0.00120195 1 
633 1 2.14849 58.563 -9.99419 0.00267427 1 
634 1 0.938019 60.3017 -8.0434 0.0129296 1 
635 1 0.967882 61.0339 -10.8217 0.00128255 1 
636 1 2.61722 62.4475 -8.94234 0.00393725 1 
726 1 23.2119 1.37496 -2.35538 4.75645 5 
727 1 25.5357 3.33097 -0.460782 5.80252 5 
728 1 22.5499 3.28888 -0.473943 2.03923 5 
729 1 23.887 5.48825 -1.38315 0.731203 1 
730 1 23.8525 9.32695 -0.399351 1.27475 5 
732 1 18.6538 0.243657 -4.17019 0.800931 5 
733 1 20.3911 1.54639 -2.34432 4.68126 5 
734 1 20.4146 2.40297 -5.13862 0.0460059 1 
735 1 22.1152 3.83619 -3.23634 0.312973 1 
736 1 19.3144 4.1367 -3.28923 0.49196 5 
737 1 20.9386 5.56961 -1.38411 0.469197 1 
738 1 20.8998 6.31635 -4.16697 0.0668613 1 
739 1 22.4592 7.78447 -2.29449 0.187433 1 
740 1 19.5444 7.92588 -2.26931 0.402853 1 
741 1 20.9673 9.32062 -0.386888 1.30557 5 
742 1 21.2446 10.1686 -3.20447 0.170741 1 
743 1 22.7072 11.6173 -1.27789 5.21391 5 
744 1 19.9798 11.7271 -1.29125 6.16975 5 
745 1 21.8045 14.1078 -2.08938 1.35577 5 
746 1 20.8744 15.8674 -0.233462 0.812218 5 
747 1 22.275 18.1372 -1.10189 0.308506 1 
81572 2 39.2585 8.9496 0.98973 0.533295 1 
749 1 18.7331 1.00702 -6.99115 0.0188615 1 
750 1 15.8845 1.33223 -6.89519 0.0762394 1 
751 1 17.5465 2.7183 -5.10188 0.239452 1 
752 1 17.5665 3.47857 -7.88002 0.0148587 1 
753 1 19.2311 4.89003 -6.03632 0.0159498 1 
754 1 16.3812 5.2612 -6.04111 0.0675959 1 
755 1 18.0355 6.62257 -4.1663 0.258756 1 
756 1 18.0478 7.39849 -6.9199 0.0128476 1 
757 1 19.6703 8.79317 -5.04992 0.0552884 1 
758 1 16.8277 9.20153 -5.07526 0.132227 1 
759 1 18.3965 10.5532 -3.17576 0.30076 1 
760 1 18.528 11.3061 -5.92747 0.0273596 1 
761 1 20.1862 12.6877 -4.04888 0.12868 1 
762 1 17.3336 13.022 -4.01777 0.170417 1 
763 1 19.0838 14.3556 -2.17061 0.910759 5 
764 1 19.0127 15.1998 -4.89118 0.0381553 1 
765 1 20.6666 16.6326 -2.99188 0.129576 1 
766 1 17.8225 16.9143 -2.94935 0.677422 5 
767 1 19.3465 18.2358 -1.04439 1.16681 5 
768 1 19.4648 19.083 -3.89723 0.104942 1 
769 1 20.9991 20.5095 -2.01823 0.207773 1 
770 1 18.2154 20.8891 -2.14087 0.210896 1 
771 1 19.905 23.0188 -3.01466 0.108925 1 
772 1 21.4838 24.3111 -1.09554 5.50369 5 
773 1 18.6873 24.8879 -1.29814 2.70671 5 
774 1 20.5391 26.8564 -1.97588 0.788462 5 
775 1 20.8534 30.6718 -0.864766 0.318388 1 
777 1 14.249 0.659735 -11.5633 0.00242334 1 
778 1 15.9032 2.06935 -9.7057 0.00631293 1 
779 1 13.0628 2.40361 -9.62477 0.00234077 1 
780 1 14.7172 3.81897 -7.80116 0.0178478 1 
781 1 14.7242 4.54407 -10.5786 0.00283941 1 
782 1 16.3856 5.97356 -8.76373 0.010779 1 
783 1 13.5295 6.31598 -8.68108 0.0168943 1 
784 1 15.1845 7.77871 -6.90291 0.0554786 1 
785 1 15.1987 8.46385 -9.61559 0.00770832 1 
786 1 16.8662 9.89926 -7.78804 0.0138463 1 
787 1 13.9956 10.2489 -7.69012 0.0102728 1 
788 1 15.6592 11.6643 -5.86222 0.0234369 1 
789 1 15.6805 12.367 -8.61786 0.00383715 1 
790 1 17.3543 13.7823 -6.77344 0.0127711 1 
791 1 14.483 14.1307 -6.71128 0.0223216 1 
792 1 16.1696 15.5615 -4.92323 0.096137 1 
793 1 16.1711 16.2549 -7.65539 0.0136658 1 
794 1 17.8448 17.6744 -5.78498 0.0386207 1 
795 1 14.9752 18.048 -5.81622 0.0577964 1 
796 1 16.6458 19.482 -4.01433 0.146947 1 
797 1 16.6522 20.162 -6.72568 0.0200721 1 
798 1 18.3062 21.5976 -4.88542 0.0266176 1 
799 1 15.4388 21.9287 -4.8738 0.0322804 1 
800 1 17.0791 23.3993 -3.09399 0.0742054 1 
801 1 17.125 24.0702 -5.792 0.016438 1 
802 1 18.7856 25.5398 -3.9423 0.0775443 1 
803 1 15.9075 25.8652 -4.00042 0.0850419 1 
804 1 17.5528 27.3735 -2.11184 1.67908 5 
805 1 17.6108 27.9893 -4.8117 0.0375177 1 
806 1 19.3089 29.3472 -2.84152 0.295743 1 
807 1 16.389 29.7451 -2.99608 1.00387 5 
808 1 17.9685 30.8379 -0.974485 2.8658 5 
809 1 18.077 31.8356 -3.73389 0.132666 1 
810 1 19.6326 33.1357 -1.79485 0.242404 1 
811 1 16.8343 33.617 -1.92054 6.15621 5 
812 1 18.5951 35.6967 -2.75182 0.22453 1 
813 1 20.2885 36.9168 -0.765007 2.25872 5 
814 1 17.5328 37.5387 -1.02357 3.71926 5 
815 1 19.2195 39.5599 -1.6646 0.363557 1 
816 1 19.5418 43.2827 -0.639771 5.75615 5 
85692 2 38.8767 49.208 0.936385 5.00105 5 
818 1 11.4107 0.983763 -11.4769 0.00086126 1 
819 1 11.414 1.70088 -14.268 0.000232758 1 
820 1 13.0683 3.1231 -12.4156 0.000530523 1 
821 1 10.2295 3.44655 -12.3251 0.000886773 1 
822 1 11.8793 4.87436 -10.4847 0.00276184 1 
823 1 11.8851 5.59138 -13.2654 0.000426792 1 
824 1 13.5395 7.02278 -11.4334 0.0021261 1 
825 1 10.6968 7.34662 -11.329 0.00104446 1 
826 1 12.3453 8.79244 -9.50145 0.00273846 1 
827 1 12.3557 9.49294 -12.2723 0.000678041 1 
828 1 14.0132 10.9328 -10.4452 0.00214609 1 
829 1 11.162 11.2543 -10.3335 0.00189961 1 
830 1 12.8138 12.7013 -8.51323 0.0069304 1 
831 1 12.8279 13.3911 -11.2854 0.00145515 1 
832 1 14.493 14.8243 -9.46815 0.00415166 1 
833 1 11.6295 15.1444 -9.3455 0.00565159 1 
834 1 13.2907 16.5911 -7.57309 0.0218417 1 
835 1 13.3022 17.2802 -10.3248 0.00380103 1 
836 1 14.974 18.7206 -8.53119 0.0106018 1 
837 1 12.0989 19.042 -8.4158 0.00743191 1 
838 1 13.7658 20.495 -6.65377 0.0179873 1 
839 1 13.7766 21.1807 -9.38435 0.00559113 1 
840 1 15.4514 22.6213 -7.5975 0.0107963 1 
841 1 12.5601 22.9416 -7.49146 0.0155295 1 
842 1 14.2348 24.3864 -5.76641 0.0562452 1 
843 1 14.2543 25.0886 -8.45003 0.0165359 1 
844 1 15.9309 26.5436 -6.66303 0.0204439 1 
845 1 13.0355 26.8645 -6.58205 0.233233 1 
846 1 14.7069 28.3318 -4.8388 0.292262 1 
847 1 14.7365 29.0238 -7.48194 0.047933 1 
848 1 16.4199 30.4611 -5.6599 0.043609 1 
849 1 13.5293 30.8132 -5.56782 0.10801 1 
850 1 15.2234 32.2849 -3.84736 0.270627 1 
851 1 15.2236 32.948 -6.49114 0.0506241 1 
852 1 16.9213 34.3517 -4.64958 0.0538753 1 
853 1 14.0142 34.7604 -4.59101 0.191217 1 
854 1 15.7409 36.1744 -2.87987 0.461939 1 
855 1 15.7157 36.8533 -5.50293 0.0974837 1 
856 1 17.4323 38.2464 -3.6631 0.105149 1 
857 1 14.5076 38.6693 -3.64269 0.943122 1 
858 1 16.3663 40.0228 -1.83526 3.42701 5 
859 1 16.2111 40.7552 -4.45684 0.147221 1 