ITEM: TIMESTEP
0
ITEM: NUMBER OF ATOMS
7790
ITEM: BOX BOUNDS xy xz yz pp pp ss
0.0000000000000000e+00 4.6775113574999999e+01 3.8183766179999998e+00
0.0000000000000000e+00 1.0142085584300000e+02 0.0000000000000000e+00
-8.7518792373440562e+01 8.6795588687209147e+01 0.0000000000000000e+00
ITEM: ATOMS id type x y z c_csym c_cna 
1 1 8.92656 0.446936 -2.04717 0.224729 1 
2 1 5.0476 1.56089 -1.24586 10.7856 5 
3 1 1.33823 2.80845 -0.685328 7.68802 5 
4 1 6.5821 0.674301 -3.60399 0.0271068 1 
5 1 4.20773 0.928406 -5.18729 0.00975449 1 
6 1 2.76814 1.82545 -2.88471 0.139371 1 
7 1 0.335214 0.446936 -2.04717 0.224729 1 
8 1 0.349809 2.0481 -4.40175 0.0378579 1 
9 1 1.81549 1.17693 -6.73784 0.00607878 1 
10 1 0.871858 0.576975 -10.6528 0.000274118 1 
11 1 26.1093 0.446936 -2.04717 0.224729 1 
12 1 22.2303 1.56089 -1.24586 10.7856 5 
13 1 18.5209 2.80845 -0.685328 7.68802 5 
14 1 23.7648 0.674301 -3.60399 0.0271068 1 
15 1 21.3904 0.928406 -5.18729 0.00975449 1 
16 1 19.9508 1.82545 -2.88471 0.139371 1 
17 1 17.5179 0.446936 -2.04717 0.224729 1 
18 1 17.5325 2.0481 -4.40175 0.0378579 1 
19 1 16.0568 2.92159 -1.98018 5.93832 5 
20 1 15.1735 0.674301 -3.60399 0.0271068 1 
21 1 13.6389 1.56089 -1.24586 10.7856 5 
22 1 13.7383 3.15678 -3.63096 0.063442 1 
23 1 12.3174 4.13017 -1.20181 8.16376 5 
24 1 11.3595 1.82545 -2.88471 0.139371 1 
25 1 9.92957 2.80845 -0.685328 7.68802 5 
26 1 9.88072 4.26013 -2.97392 0.30737 1 
27 1 8.38361 5.33544 -0.649683 5.10561 5 
28 1 7.46544 2.92159 -1.98018 5.93832 5 
29 1 6.04203 5.41244 -2.15331 3.55898 5 
30 1 3.72602 4.13017 -1.20181 8.16376 5 
31 1 2.14009 6.48793 -1.73448 12.0988 5 
32 1 18.9982 1.17693 -6.73784 0.00607878 1 
33 1 16.619 1.43369 -8.31393 0.000856281 1 
34 1 15.1751 2.29443 -5.97881 0.00314013 1 
35 1 12.7991 0.928406 -5.18729 0.00975449 1 
36 1 12.7981 2.54247 -7.55917 0.00137258 1 
37 1 11.3636 3.40109 -5.24406 0.0166946 1 
38 1 10.4068 1.17693 -6.73784 0.00607878 1 
39 1 8.94116 2.0481 -4.40175 0.0378579 1 
40 1 8.97153 3.66061 -6.79007 0.00298763 1 
41 1 7.5074 4.53165 -4.46516 0.0431042 1 
42 1 6.58376 2.29443 -5.97881 0.00314013 1 
43 1 5.14699 3.15678 -3.63096 0.063442 1 
44 1 5.15555 4.77231 -6.04487 0.0101554 1 
45 1 3.74795 5.62699 -3.75693 0.351894 1 
46 1 2.77226 3.40109 -5.24406 0.0166946 1 
47 1 1.28937 4.26013 -2.97392 0.30737 1 
48 1 1.34498 5.89549 -5.28157 0.0537677 1 
49 1 18.0546 0.576975 -10.6528 0.000274118 1 
50 1 15.668 0.830093 -12.2235 0.000130476 1 
51 1 14.2346 1.68635 -9.88786 0.000312864 1 
52 1 11.8481 1.9396 -11.4555 0.000215343 1 
53 1 10.4121 2.79634 -9.12055 0.000776323 1 
54 1 9.46321 0.576975 -10.6528 0.000274118 1 
55 1 8.02761 1.43369 -8.31393 0.000856281 1 
56 1 8.02853 3.0505 -10.6908 0.000229637 1 
57 1 6.59274 3.9104 -8.3616 0.000564897 1 
58 1 5.64329 1.68635 -9.88786 0.000312864 1 
59 1 4.20673 2.54247 -7.55917 0.00137258 1 
60 1 4.20881 4.16285 -9.92944 0.000242067 1 
61 1 2.77202 5.0254 -7.60571 0.00130299 1 
62 1 1.8208 2.79634 -9.12055 0.000776323 1 
63 1 0.380186 3.66061 -6.79007 0.00298763 1 
64 1 0.38742 5.27549 -9.16767 0.000720461 1 
65 1 13.281 1.08248 -13.7917 9.09168e-05 1 
67 1 9.46211 2.19285 -13.0245 0.000101266 1 
68 1 7.07661 0.830093 -12.2235 0.000130476 1 
69 1 7.0757 2.44541 -14.5927 5.40253e-05 1 
70 1 5.64307 3.30372 -12.2595 0.000107641 1 
71 1 4.68966 1.08248 -13.7917 9.09168e-05 1 
72 1 3.25671 1.9396 -11.4555 0.000215343 1 
73 1 3.25698 3.55625 -13.8268 8.04992e-05 1 
74 1 1.82364 4.41472 -11.4954 0.00022189 1 
75 1 0.870766 2.19285 -13.0245 0.000101266 1 
94 1 39.413 1.56089 -1.24586 10.7856 5 
95 1 35.7036 2.80845 -0.685328 7.68802 5 
96 1 40.9475 0.674301 -3.60399 0.0271068 1 
97 1 38.5731 0.928406 -5.18729 0.00975449 1 
98 1 37.1335 1.82545 -2.88471 0.139371 1 
99 1 34.7006 0.446936 -2.04717 0.224729 1 
100 1 34.7152 2.0481 -4.40175 0.0378579 1 
101 1 33.2395 2.92159 -1.98018 5.93832 5 
102 1 32.3561 0.674301 -3.60399 0.0271068 1 
103 1 30.8216 1.56089 -1.24586 10.7856 5 
104 1 30.921 3.15678 -3.63096 0.063442 1 
105 1 29.5001 4.13017 -1.20181 8.16376 5 
106 1 28.5422 1.82545 -2.88471 0.139371 1 
107 1 27.1123 2.80845 -0.685328 7.68802 5 
108 1 27.0634 4.26013 -2.97392 0.30737 1 
109 1 25.5663 5.33544 -0.649683 5.10561 5 
110 1 24.6481 2.92159 -1.98018 5.93832 5 
111 1 23.2247 5.41244 -2.15331 3.55898 5 
112 1 20.9087 4.13017 -1.20181 8.16376 5 
113 1 19.3228 6.48793 -1.73448 12.0988 5 
114 1 16.975 5.33544 -0.649683 5.10561 5 
115 1 15.5483 7.74936 -0.904453 8.21405 5 
116 1 36.1809 1.17693 -6.73784 0.00607878 1 
117 1 33.8016 1.43369 -8.31393 0.000856281 1 
118 1 32.3578 2.29443 -5.97881 0.00314013 1 
119 1 29.9818 0.928406 -5.18729 0.00975449 1 
120 1 29.9808 2.54247 -7.55917 0.00137258 1 
121 1 28.5463 3.40109 -5.24406 0.0166946 1 
122 1 27.5895 1.17693 -6.73784 0.00607878 1 
123 1 26.1239 2.0481 -4.40175 0.0378579 1 
124 1 26.1542 3.66061 -6.79007 0.00298763 1 
125 1 24.6901 4.53165 -4.46516 0.0431042 1 
126 1 23.7665 2.29443 -5.97881 0.00314013 1 
127 1 22.3297 3.15678 -3.63096 0.063442 1 
128 1 22.3382 4.77231 -6.04487 0.0101554 1 
129 1 20.9306 5.62699 -3.75693 0.351894 1 
130 1 19.955 3.40109 -5.24406 0.0166946 1 
131 1 18.4721 4.26013 -2.97392 0.30737 1 
132 1 18.5277 5.89549 -5.28157 0.0537677 1 
133 1 17.0244 6.82836 -3.06293 0.856905 5 
134 1 16.0988 4.53165 -4.46516 0.0431042 1 
135 1 14.6334 5.41244 -2.15331 3.55898 5 
136 1 14.6539 7.03242 -4.52278 0.118751 1 
137 1 13.1289 7.91302 -2.05299 6.62381 5 
138 1 12.3393 5.62699 -3.75693 0.351894 1 
139 1 10.7314 6.48793 -1.73448 12.0988 5 
140 1 10.8412 8.21764 -3.77683 0.947056 5 
21446 1 37.0716 0.18415 -0.607462 5.29372 5 
142 1 8.43302 6.82836 -3.06293 0.856905 5 
143 1 6.95692 7.74936 -0.904453 8.21405 5 
144 1 7.04946 9.28271 -3.19566 5.84222 5 
145 1 6.23447 10.4329 -0.838503 11.616 5 
146 1 4.53752 7.91302 -2.05299 6.62381 5 
147 1 3.22371 10.2993 -2.11471 6.07993 5 
20612 1 19.8889 0.18415 -0.607462 5.29372 5 
149 1 35.2372 0.576975 -10.6528 0.000274118 1 
150 1 32.8507 0.830093 -12.2235 0.000130476 1 
151 1 31.4173 1.68635 -9.88786 0.000312864 1 
152 1 29.0308 1.9396 -11.4555 0.000215343 1 
153 1 27.5948 2.79634 -9.12055 0.000776323 1 
154 1 26.6459 0.576975 -10.6528 0.000274118 1 
155 1 25.2103 1.43369 -8.31393 0.000856281 1 
156 1 25.2112 3.0505 -10.6908 0.000229637 1 
157 1 23.7754 3.9104 -8.3616 0.000564897 1 
158 1 22.826 1.68635 -9.88786 0.000312864 1 
159 1 21.3894 2.54247 -7.55917 0.00137258 1 
160 1 21.3915 4.16285 -9.92944 0.000242067 1 
161 1 19.9547 5.0254 -7.60571 0.00130299 1 
162 1 19.0035 2.79634 -9.12055 0.000776323 1 
163 1 17.5629 3.66061 -6.79007 0.00298763 1 
164 1 17.5701 5.27549 -9.16767 0.000720461 1 
165 1 16.1285 6.14217 -6.84101 0.0114853 1 
166 1 15.1841 3.9104 -8.3616 0.000564897 1 
167 1 13.7469 4.77231 -6.04487 0.0101554 1 
168 1 13.7505 6.3942 -8.40709 0.000776276 1 
169 1 12.3022 7.26977 -6.08372 0.0174161 1 
170 1 11.3634 5.0254 -7.60571 0.00130299 1 
171 1 9.93632 5.89549 -5.28157 0.0537677 1 
172 1 9.93967 7.50595 -7.66371 0.00755451 1 
173 1 8.51021 8.38795 -5.40138 0.0820988 1 
174 1 7.53718 6.14217 -6.84101 0.0114853 1 
175 1 6.06257 7.03242 -4.52278 0.118751 1 
176 1 6.107 8.6353 -6.89341 0.01407 1 
177 1 4.64466 9.49015 -4.55499 0.16592 1 
178 1 3.71084 7.26977 -6.08372 0.0174161 1 
179 1 2.24987 8.21764 -3.77683 0.947056 5 
180 1 2.30956 9.76078 -6.14553 0.0312321 1 
181 1 0.897634 10.662 -3.8656 5.24405 5 
182 1 30.4637 1.08248 -13.7917 9.09168e-05 1 
184 1 26.6448 2.19285 -13.0245 0.000101266 1 
185 1 24.2593 0.830093 -12.2235 0.000130476 1 
186 1 24.2584 2.44541 -14.5927 5.40253e-05 1 
187 1 22.8258 3.30372 -12.2595 0.000107641 1 
188 1 21.8724 1.08248 -13.7917 9.09168e-05 1 
189 1 20.4394 1.9396 -11.4555 0.000215343 1 
190 1 20.4397 3.55625 -13.8268 8.04992e-05 1 
191 1 19.0063 4.41472 -11.4954 0.00022189 1 
192 1 18.0535 2.19285 -13.0245 0.000101266 1 
193 1 16.6199 3.0505 -10.6908 0.000229637 1 
194 1 16.621 4.66786 -13.0625 8.82714e-05 1 
195 1 15.1871 5.5284 -10.7333 0.00016216 1 
196 1 14.2344 3.30372 -12.2595 0.000107641 1 
197 1 12.8002 4.16285 -9.92944 0.000242067 1 
198 1 12.8029 5.78015 -12.3006 9.88733e-05 1 
199 1 11.3704 6.64177 -9.97652 0.000439694 1 
200 1 10.415 4.41472 -11.4954 0.00022189 1 
201 1 8.97877 5.27549 -9.16767 0.000720461 1 
202 1 8.98397 6.89324 -11.5388 0.000194556 1 
203 1 7.5492 7.75825 -9.2144 0.00139118 1 
204 1 6.59571 5.5284 -10.7333 0.00016216 1 
205 1 5.15915 6.3942 -8.40709 0.000776276 1 
206 1 5.16685 8.0087 -10.778 0.000154034 1 
207 1 3.73539 8.87733 -8.45611 0.00197489 1 
208 1 2.77908 6.64177 -9.97652 0.000439694 1 
209 1 1.34832 7.50595 -7.66371 0.00755451 1 
210 1 1.35204 9.12378 -10.0234 0.000855908 1 
221 1 15.667 2.44541 -14.5927 5.40253e-05 1 
223 1 14.2351 4.92043 -14.6295 4.55676e-05 1 
225 1 11.8483 3.55625 -13.8268 8.04992e-05 1 
227 1 10.4168 6.0324 -13.8659 6.91361e-05 1 
229 1 8.0296 4.66786 -13.0625 8.82714e-05 1 
231 1 6.59882 7.14559 -13.1034 5.54851e-05 1 
232 1 5.64379 4.92043 -14.6295 4.55676e-05 1 
233 1 4.21155 5.78015 -12.3006 9.88733e-05 1 
234 1 4.21287 7.39756 -14.669 3.33165e-05 1 
235 1 2.78188 8.25915 -12.3434 0.000104509 1 
236 1 1.82543 6.0324 -13.8659 6.91361e-05 1 
237 1 0.39262 6.89324 -11.5388 0.000194556 1 
238 1 0.394927 8.51095 -13.9063 4.32014e-05 1 
336 1 42.749 5.33544 -0.649683 5.10561 5 
337 1 41.8308 2.92159 -1.98018 5.93832 5 
338 1 40.4074 5.41244 -2.15331 3.55898 5 
339 1 38.0914 4.13017 -1.20181 8.16376 5 
340 1 36.5055 6.48793 -1.73448 12.0988 5 
341 1 34.1577 5.33544 -0.649683 5.10561 5 
342 1 32.731 7.74936 -0.904453 8.21405 5 
343 1 41.8728 4.53165 -4.46516 0.0431042 1 
344 1 40.9492 2.29443 -5.97881 0.00314013 1 
345 1 39.5124 3.15678 -3.63096 0.063442 1 
346 1 39.5209 4.77231 -6.04487 0.0101554 1 
347 1 38.1133 5.62699 -3.75693 0.351894 1 
348 1 37.1376 3.40109 -5.24406 0.0166946 1 
349 1 35.6548 4.26013 -2.97392 0.30737 1 
350 1 35.7104 5.89549 -5.28157 0.0537677 1 
351 1 34.2071 6.82836 -3.06293 0.856905 5 
352 1 33.2814 4.53165 -4.46516 0.0431042 1 
353 1 31.8161 5.41244 -2.15331 3.55898 5 
354 1 31.8366 7.03242 -4.52278 0.118751 1 
355 1 30.3116 7.91302 -2.05299 6.62381 5 
356 1 29.522 5.62699 -3.75693 0.351894 1 
357 1 27.9141 6.48793 -1.73448 12.0988 5 
358 1 28.0239 8.21764 -3.77683 0.947056 5 
20609 1 28.4802 0.18415 -0.607462 5.29372 5 
360 1 25.6157 6.82836 -3.06293 0.856905 5 
361 1 24.1396 7.74936 -0.904453 8.21405 5 
362 1 24.2322 9.28271 -3.19566 5.84222 5 
363 1 23.4172 10.4329 -0.838503 11.616 5 
364 1 21.7202 7.91302 -2.05299 6.62381 5 
365 1 20.4064 10.2993 -2.11471 6.07993 5 
19697 1 2.7062 0.18415 -0.607462 5.29372 5 
367 1 17.6207 9.86239 -1.36035 8.34759 5 
368 1 14.8258 10.4329 -0.838503 11.616 5 
369 1 12.9006 12.4521 -0.855628 13.8435 5 
370 1 42.393 1.43369 -8.31393 0.000856281 1 
371 1 42.3939 3.0505 -10.6908 0.000229637 1 
372 1 40.9581 3.9104 -8.3616 0.000564897 1 
373 1 40.0087 1.68635 -9.88786 0.000312864 1 
374 1 38.5721 2.54247 -7.55917 0.00137258 1 
375 1 38.5742 4.16285 -9.92944 0.000242067 1 
376 1 37.1374 5.0254 -7.60571 0.00130299 1 
377 1 36.1862 2.79634 -9.12055 0.000776323 1 
378 1 34.7456 3.66061 -6.79007 0.00298763 1 
379 1 34.7528 5.27549 -9.16767 0.000720461 1 
380 1 33.3112 6.14217 -6.84101 0.0114853 1 
381 1 32.3668 3.9104 -8.3616 0.000564897 1 
382 1 30.9296 4.77231 -6.04487 0.0101554 1 
383 1 30.9332 6.3942 -8.40709 0.000776276 1 
384 1 29.4849 7.26977 -6.08372 0.0174161 1 
385 1 28.5461 5.0254 -7.60571 0.00130299 1 
386 1 27.119 5.89549 -5.28157 0.0537677 1 
387 1 27.1224 7.50595 -7.66371 0.00755451 1 
388 1 25.6929 8.38795 -5.40138 0.0820988 1 
389 1 24.7199 6.14217 -6.84101 0.0114853 1 
390 1 23.2453 7.03242 -4.52278 0.118751 1 
391 1 23.2897 8.6353 -6.89341 0.01407 1 
392 1 21.8274 9.49015 -4.55499 0.16592 1 
393 1 20.8935 7.26977 -6.08372 0.0174161 1 
394 1 19.4326 8.21764 -3.77683 0.947056 5 
395 1 19.4923 9.76078 -6.14553 0.0312321 1 
396 1 18.0803 10.662 -3.8656 5.24405 5 
397 1 17.1016 8.38795 -5.40138 0.0820988 1 
398 1 15.6408 9.28271 -3.19566 5.84222 5 
399 1 15.6849 10.892 -5.427 0.0838687 1 
400 1 14.2617 11.7345 -3.14251 6.28748 5 
401 1 13.236 9.49015 -4.55499 0.16592 1 
402 1 11.8151 10.2993 -2.11471 6.07993 5 
403 1 11.8532 11.9775 -4.50234 0.422155 1 
404 1 10.1598 12.6405 -1.81498 9.31768 5 
405 1 9.48898 10.662 -3.8656 5.24405 5 
406 1 9.0294 9.86239 -1.36035 8.34759 5 
407 1 8.07507 13.0526 -3.78719 6.32047 5 
408 1 6.82703 13.7043 -1.3051 10.4816 5 
409 1 5.6704 11.7345 -3.14251 6.28748 5 
410 1 4.30924 12.4521 -0.855628 13.8435 5 
411 1 4.24573 14.1564 -3.02063 0.652743 1 
412 1 3.2047 15.0556 -0.516516 4.89243 5 
413 1 1.56849 12.6405 -1.81498 9.31768 5 
414 1 43.4218 15.1636 -2.15578 1.9972 5 
415 1 41.442 0.830093 -12.2235 0.000130476 1 
416 1 41.4411 2.44541 -14.5927 5.40253e-05 1 
417 1 40.0085 3.30372 -12.2595 0.000107641 1 
418 1 39.0551 1.08248 -13.7917 9.09168e-05 1 
419 1 37.6221 1.9396 -11.4555 0.000215343 1 
420 1 37.6224 3.55625 -13.8268 8.04992e-05 1 
421 1 36.189 4.41472 -11.4954 0.00022189 1 
422 1 35.2362 2.19285 -13.0245 0.000101266 1 
423 1 33.8026 3.0505 -10.6908 0.000229637 1 
424 1 33.8036 4.66786 -13.0625 8.82714e-05 1 
425 1 32.3697 5.5284 -10.7333 0.00016216 1 
426 1 31.4171 3.30372 -12.2595 0.000107641 1 
427 1 29.9829 4.16285 -9.92944 0.000242067 1 
428 1 29.9856 5.78015 -12.3006 9.88733e-05 1 
429 1 28.5531 6.64177 -9.97652 0.000439694 1 
430 1 27.5977 4.41472 -11.4954 0.00022189 1 
431 1 26.1615 5.27549 -9.16767 0.000720461 1 
432 1 26.1667 6.89324 -11.5388 0.000194556 1 
433 1 24.7319 7.75825 -9.2144 0.00139118 1 
434 1 23.7784 5.5284 -10.7333 0.00016216 1 
435 1 22.3418 6.3942 -8.40709 0.000776276 1 
436 1 22.3495 8.0087 -10.778 0.000154034 1 
437 1 20.9181 8.87733 -8.45611 0.00197489 1 
438 1 19.9618 6.64177 -9.97652 0.000439694 1 
439 1 18.531 7.50595 -7.66371 0.00755451 1 
440 1 18.5347 9.12378 -10.0234 0.000855908 1 
441 1 17.1086 10.0001 -7.71598 0.00875853 1 
442 1 16.1405 7.75825 -9.2144 0.00139118 1 
443 1 14.6983 8.6353 -6.89341 0.01407 1 
444 1 14.7121 10.2432 -9.25442 0.00239947 1 
445 1 13.2731 11.1174 -6.90969 0.0321444 1 
446 1 12.3267 8.87733 -8.45611 0.00197489 1 
447 1 10.9009 9.76078 -6.14553 0.0312321 1 
448 1 10.9074 11.3593 -8.49812 0.00357105 1 
449 1 9.50185 12.2376 -6.16837 0.0461186 1 
450 1 8.51723 10.0001 -7.71598 0.00875853 1 
451 1 7.09354 10.892 -5.427 0.0838687 1 
452 1 7.09434 12.4754 -7.74124 0.0104927 1 
453 1 5.66964 13.3409 -5.41798 0.0698041 1 
454 1 4.68177 11.1174 -6.90969 0.0321444 1 
455 1 3.26188 11.9775 -4.50234 0.422155 1 
456 1 3.27904 13.5776 -6.94413 0.0216743 1 
457 1 1.8653 14.3859 -4.5301 0.272334 1 
458 1 0.910504 12.2376 -6.16837 0.0461186 1 
467 1 32.8497 2.44541 -14.5927 5.40253e-05 1 
469 1 31.4178 4.92043 -14.6295 4.55676e-05 1 
471 1 29.031 3.55625 -13.8268 8.04992e-05 1 
473 1 27.5995 6.0324 -13.8659 6.91361e-05 1 
475 1 25.2123 4.66786 -13.0625 8.82714e-05 1 
477 1 23.7815 7.14559 -13.1034 5.54851e-05 1 
478 1 22.8265 4.92043 -14.6295 4.55676e-05 1 
479 1 21.3942 5.78015 -12.3006 9.88733e-05 1 
480 1 21.3956 7.39756 -14.669 3.33165e-05 1 
481 1 19.9646 8.25915 -12.3434 0.000104509 1 
482 1 19.0081 6.0324 -13.8659 6.91361e-05 1 
483 1 17.5753 6.89324 -11.5388 0.000194556 1 
484 1 17.5776 8.51095 -13.9063 4.32014e-05 1 
485 1 16.1461 9.37435 -11.5806 0.000203409 1 
486 1 15.1902 7.14559 -13.1034 5.54851e-05 1 
487 1 13.7582 8.0087 -10.778 0.000154034 1 
488 1 13.7607 9.6251 -13.1445 4.11439e-05 1 
489 1 12.3314 10.4898 -10.8205 0.000297713 1 
490 1 11.3732 8.25915 -12.3434 0.000104509 1 
491 1 9.94339 9.12378 -10.0234 0.000855908 1 
492 1 9.94441 10.7399 -12.384 0.000145361 1 
493 1 8.51721 11.6066 -10.0624 0.00124662 1 
494 1 7.55471 9.37435 -11.5806 0.000203409 1 
495 1 6.12078 10.2432 -9.25442 0.00239947 1 
496 1 6.12713 11.8548 -11.6192 0.000245468 1 
497 1 4.70014 12.7192 -9.28897 0.00206775 1 
498 1 3.74003 10.4898 -10.8205 0.000297713 1 
499 1 2.31604 11.3593 -8.49812 0.00357105 1 
500 1 2.31341 12.9699 -10.8551 0.000462764 1 
501 1 0.892436 13.8332 -8.52223 0.00436762 1 
529 1 12.8042 7.39756 -14.669 3.33165e-05 1 
531 1 11.3739 9.87642 -14.7086 2.41943e-05 1 
533 1 8.98627 8.51095 -13.9063 4.32014e-05 1 
535 1 7.55643 10.9905 -13.9456 3.38608e-05 1 
537 1 5.16936 9.6251 -13.1445 4.11439e-05 1 
539 1 3.74 12.1051 -13.1826 7.36584e-05 1 
540 1 2.78255 9.87642 -14.7086 2.41943e-05 1 
541 1 1.35306 10.7399 -12.384 0.000145361 1 
542 1 1.35203 12.3556 -14.7465 3.64576e-05 1 
9065 1 31.9544 48.368 -0.651424 6.53012 5 
791 1 42.7984 6.82836 -3.06293 0.856905 5 
792 1 41.3223 7.74936 -0.904453 8.21405 5 
793 1 41.4149 9.28271 -3.19566 5.84222 5 
794 1 40.5999 10.4329 -0.838503 11.616 5 
795 1 38.9029 7.91302 -2.05299 6.62381 5 
796 1 37.5891 10.2993 -2.11471 6.07993 5 
19694 1 11.2975 0.18415 -0.607462 5.29372 5 
798 1 34.8034 9.86239 -1.36035 8.34759 5 
799 1 32.0085 10.4329 -0.838503 11.616 5 
800 1 30.0833 12.4521 -0.855628 13.8435 5 
801 1 42.8756 8.38795 -5.40138 0.0820988 1 
802 1 41.9026 6.14217 -6.84101 0.0114853 1 
803 1 40.428 7.03242 -4.52278 0.118751 1 
804 1 40.4724 8.6353 -6.89341 0.01407 1 
805 1 39.01 9.49015 -4.55499 0.16592 1 
806 1 38.0762 7.26977 -6.08372 0.0174161 1 
807 1 36.6153 8.21764 -3.77683 0.947056 5 
808 1 36.6749 9.76078 -6.14553 0.0312321 1 
809 1 35.263 10.662 -3.8656 5.24405 5 
810 1 34.2842 8.38795 -5.40138 0.0820988 1 
811 1 32.8235 9.28271 -3.19566 5.84222 5 
812 1 32.8676 10.892 -5.427 0.0838687 1 
813 1 31.4444 11.7345 -3.14251 6.28748 5 
814 1 30.4187 9.49015 -4.55499 0.16592 1 
815 1 28.9978 10.2993 -2.11471 6.07993 5 
816 1 29.0359 11.9775 -4.50234 0.422155 1 
817 1 27.3425 12.6405 -1.81498 9.31768 5 
818 1 26.6717 10.662 -3.8656 5.24405 5 
819 1 26.2121 9.86239 -1.36035 8.34759 5 
820 1 25.2578 13.0526 -3.78719 6.32047 5 
821 1 24.0097 13.7043 -1.3051 10.4816 5 
822 1 22.8531 11.7345 -3.14251 6.28748 5 
823 1 21.4919 12.4521 -0.855628 13.8435 5 
824 1 21.4284 14.1564 -3.02063 0.652743 1 
825 1 20.3874 15.0556 -0.516516 4.89243 5 
826 1 18.7512 12.6405 -1.81498 9.31768 5 
827 1 17.6478 15.1636 -2.15578 1.9972 5 
828 1 15.4184 13.7043 -1.3051 10.4816 5 
829 1 13.9712 16.2574 -1.62182 8.51791 5 
830 1 11.796 15.0556 -0.516516 4.89243 5 
831 1 9.881 17.2333 -0.698786 5.213 5 
832 1 41.9146 7.75825 -9.2144 0.00139118 1 
833 1 40.9611 5.5284 -10.7333 0.00016216 1 
834 1 39.5245 6.3942 -8.40709 0.000776276 1 
835 1 39.5322 8.0087 -10.778 0.000154034 1 
836 1 38.1008 8.87733 -8.45611 0.00197489 1 
837 1 37.1445 6.64177 -9.97652 0.000439694 1 
838 1 35.7137 7.50595 -7.66371 0.00755451 1 
839 1 35.7174 9.12378 -10.0234 0.000855908 1 
840 1 34.2913 10.0001 -7.71598 0.00875853 1 
841 1 33.3232 7.75825 -9.2144 0.00139118 1 
842 1 31.881 8.6353 -6.89341 0.01407 1 
843 1 31.8948 10.2432 -9.25442 0.00239947 1 
844 1 30.4558 11.1174 -6.90969 0.0321444 1 
845 1 29.5094 8.87733 -8.45611 0.00197489 1 
846 1 28.0836 9.76078 -6.14553 0.0312321 1 
847 1 28.0901 11.3593 -8.49812 0.00357105 1 
848 1 26.6845 12.2376 -6.16837 0.0461186 1 
849 1 25.6999 10.0001 -7.71598 0.00875853 1 
850 1 24.2762 10.892 -5.427 0.0838687 1 
851 1 24.277 12.4754 -7.74124 0.0104927 1 
852 1 22.8523 13.3409 -5.41798 0.0698041 1 
853 1 21.8645 11.1174 -6.90969 0.0321444 1 
854 1 20.4446 11.9775 -4.50234 0.422155 1 
855 1 20.4617 13.5776 -6.94413 0.0216743 1 
856 1 19.048 14.3859 -4.5301 0.272334 1 
857 1 18.0932 12.2376 -6.16837 0.0461186 1 
858 1 16.6664 13.0526 -3.78719 6.32047 5 
859 1 16.6689 14.6711 -6.17223 0.0138233 1 
860 1 15.2832 15.4659 -3.8517 0.147523 1 
861 1 14.261 13.3409 -5.41798 0.0698041 1 
862 1 12.8371 14.1564 -3.02063 0.652743 1 
863 1 12.8424 15.7778 -5.41032 0.0256873 1 
864 1 11.4087 16.5546 -3.0433 0.351103 1 
865 1 10.4566 14.3859 -4.5301 0.272334 1 
866 1 9.05646 15.1636 -2.15578 1.9972 5 
867 1 9.02969 16.867 -4.5996 0.0192434 1 
868 1 7.62884 17.7106 -2.25184 3.13457 5 
869 1 6.69181 15.4659 -3.8517 0.147523 1 
870 1 5.37982 16.2574 -1.62182 8.51791 5 
871 1 5.26753 17.9511 -3.9234 0.181415 1 
872 1 3.83971 18.7469 -1.75718 7.83672 5 
873 1 2.8174 16.5546 -3.0433 0.351103 1 
874 1 1.28965 17.2333 -0.698786 5.213 5 
875 1 1.39566 19.0737 -3.03962 0.242433 1 
876 1 42.395 4.66786 -13.0625 8.82714e-05 1 
878 1 40.9642 7.14559 -13.1034 5.54851e-05 1 
879 1 40.0092 4.92043 -14.6295 4.55676e-05 1 
880 1 38.5769 5.78015 -12.3006 9.88733e-05 1 
881 1 38.5783 7.39756 -14.669 3.33165e-05 1 
882 1 37.1473 8.25915 -12.3434 0.000104509 1 
883 1 36.1908 6.0324 -13.8659 6.91361e-05 1 
884 1 34.758 6.89324 -11.5388 0.000194556 1 
885 1 34.7603 8.51095 -13.9063 4.32014e-05 1 
886 1 33.3288 9.37435 -11.5806 0.000203409 1 
887 1 32.3729 7.14559 -13.1034 5.54851e-05 1 
888 1 30.9409 8.0087 -10.778 0.000154034 1 
889 1 30.9434 9.6251 -13.1445 4.11439e-05 1 
890 1 29.5141 10.4898 -10.8205 0.000297713 1 
891 1 28.5559 8.25915 -12.3434 0.000104509 1 
892 1 27.1261 9.12378 -10.0234 0.000855908 1 
893 1 27.1271 10.7399 -12.384 0.000145361 1 
894 1 25.6999 11.6066 -10.0624 0.00124662 1 
895 1 24.7374 9.37435 -11.5806 0.000203409 1 
896 1 23.3035 10.2432 -9.25442 0.00239947 1 
897 1 23.3098 11.8548 -11.6192 0.000245468 1 
898 1 21.8828 12.7192 -9.28897 0.00206775 1 
899 1 20.9227 10.4898 -10.8205 0.000297713 1 
900 1 19.4987 11.3593 -8.49812 0.00357105 1 
901 1 19.4961 12.9699 -10.8551 0.000462764 1 
902 1 18.0751 13.8332 -8.52223 0.00436762 1 
903 1 17.1086 11.6066 -10.0624 0.00124662 1 
904 1 15.6857 12.4754 -7.74124 0.0104927 1 
905 1 15.6813 14.083 -10.0904 0.00101901 1 
906 1 14.2617 14.9415 -7.75784 0.00521624 1 
907 1 13.2915 12.7192 -9.28897 0.00206775 1 
908 1 11.8704 13.5776 -6.94413 0.0216743 1 
909 1 11.8642 15.1924 -9.31205 0.00214072 1 
910 1 10.446 16.029 -6.94466 0.0128931 1 
911 1 9.48378 13.8332 -8.52223 0.00436762 1 
912 1 8.07756 14.6711 -6.17223 0.0138233 1 
913 1 8.05676 16.2973 -8.54238 0.00211928 1 
914 1 6.64671 17.1334 -6.20985 0.0123755 1 
915 1 5.67033 14.9415 -7.75784 0.00521624 1 
916 1 4.25107 15.7778 -5.41032 0.0256873 1 
917 1 4.23142 17.4048 -7.76956 0.00342193 1 
918 1 2.81383 18.239 -5.40358 0.0285505 1 
919 1 1.85468 16.029 -6.94466 0.0128931 1 
920 1 43.3951 16.867 -4.5996 0.0192434 1 
921 1 43.3788 18.5019 -6.98949 0.00229423 1 
935 1 29.9869 7.39756 -14.669 3.33165e-05 1 
937 1 28.5566 9.87642 -14.7086 2.41943e-05 1 
939 1 26.169 8.51095 -13.9063 4.32014e-05 1 
941 1 24.7391 10.9905 -13.9456 3.38608e-05 1 
943 1 22.3521 9.6251 -13.1445 4.11439e-05 1 
945 1 20.9227 12.1051 -13.1826 7.36584e-05 1 
946 1 19.9652 9.87642 -14.7086 2.41943e-05 1 
947 1 18.5358 10.7399 -12.384 0.000145361 1 
948 1 18.5347 12.3556 -14.7465 3.64576e-05 1 
949 1 17.1065 13.2195 -12.4194 0.000217905 1 
950 1 16.1478 10.9905 -13.9456 3.38608e-05 1 
951 1 14.7185 11.8548 -11.6192 0.000245468 1 
952 1 14.7173 13.4694 -13.9819 5.73232e-05 1 
953 1 13.2895 14.3327 -11.651 0.000245434 1 
954 1 12.3313 12.1051 -13.1826 7.36584e-05 1 
955 1 10.9048 12.9699 -10.8551 0.000462764 1 
956 1 10.9008 14.5829 -13.2167 0.000127925 1 
957 1 9.47499 15.4443 -10.8833 0.000610638 1 
958 1 8.51512 13.2195 -12.4194 0.000217905 1 
959 1 7.08991 14.083 -10.0904 0.00101901 1 
960 1 7.08373 15.6954 -12.4504 0.000201476 1 
961 1 5.658 16.5548 -10.1143 0.000667574 1 
962 1 4.69815 14.3327 -11.651 0.000245434 1 
963 1 3.27288 15.1924 -9.31205 0.00214072 1 
964 1 3.2659 16.8058 -11.6802 0.000311963 1 
965 1 1.8405 17.6569 -9.33463 0.00139962 1 
966 1 0.883642 15.4443 -10.8833 0.000610638 1 
1001 1 9.94338 12.3556 -14.7465 3.64576e-05 1 
1003 1 8.51183 14.8332 -14.782 5.91884e-05 1 
1005 1 6.126 13.4694 -13.9819 5.73232e-05 1 
1007 1 4.69403 15.9458 -14.0158 7.78537e-05 1 
1009 1 2.30943 14.5829 -13.2167 0.000127925 1 
1011 1 0.876634 17.0573 -13.2493 0.000135364 1 
1462 1 0.438049 9.86239 -1.36035 8.34759 5 
1463 1 42.4405 13.0526 -3.78719 6.32047 5 
1464 1 41.1924 13.7043 -1.3051 10.4816 5 
1465 1 40.0358 11.7345 -3.14251 6.28748 5 
1466 1 38.6746 12.4521 -0.855628 13.8435 5 
1467 1 38.6111 14.1564 -3.02063 0.652743 1 
1468 1 37.5701 15.0556 -0.516516 4.89243 5 
1469 1 35.9339 12.6405 -1.81498 9.31768 5 
1470 1 34.8305 15.1636 -2.15578 1.9972 5 
1471 1 32.6011 13.7043 -1.3051 10.4816 5 
1472 1 31.1539 16.2574 -1.62182 8.51791 5 
1473 1 28.9787 15.0556 -0.516516 4.89243 5 
1474 1 27.0637 17.2333 -0.698786 5.213 5 
1475 1 42.8826 10.0001 -7.71598 0.00875853 1 
1476 1 41.4589 10.892 -5.427 0.0838687 1 
1477 1 41.4597 12.4754 -7.74124 0.0104927 1 
1478 1 40.035 13.3409 -5.41798 0.0698041 1 
1479 1 39.0472 11.1174 -6.90969 0.0321444 1 
1480 1 37.6273 11.9775 -4.50234 0.422155 1 
1481 1 37.6444 13.5776 -6.94413 0.0216743 1 
1482 1 36.2307 14.3859 -4.5301 0.272334 1 
1483 1 35.2759 12.2376 -6.16837 0.0461186 1 
1484 1 33.8491 13.0526 -3.78719 6.32047 5 
1485 1 33.8516 14.6711 -6.17223 0.0138233 1 
1486 1 32.4659 15.4659 -3.8517 0.147523 1 
1487 1 31.4437 13.3409 -5.41798 0.0698041 1 
1488 1 30.0198 14.1564 -3.02063 0.652743 1 
1489 1 30.0251 15.7778 -5.41032 0.0256873 1 
1490 1 28.5914 16.5546 -3.0433 0.351103 1 
1491 1 27.6393 14.3859 -4.5301 0.272334 1 
1492 1 26.2391 15.1636 -2.15578 1.9972 5 
1493 1 26.2124 16.867 -4.5996 0.0192434 1 
1494 1 24.8115 17.7106 -2.25184 3.13457 5 
1495 1 23.8745 15.4659 -3.8517 0.147523 1 
1496 1 22.5625 16.2574 -1.62182 8.51791 5 
1497 1 22.4502 17.9511 -3.9234 0.181415 1 
1498 1 21.0224 18.7469 -1.75718 7.83672 5 
1499 1 20.0001 16.5546 -3.0433 0.351103 1 
1500 1 18.4723 17.2333 -0.698786 5.213 5 
1501 1 18.5784 19.0737 -3.03962 0.242433 1 
1502 1 17.128 20.0102 -0.742675 7.90532 5 
1503 1 16.2202 17.7106 -2.25184 3.13457 5 
1504 1 14.7324 20.1535 -2.23866 4.3944 5 
1505 1 12.4311 18.7469 -1.75718 7.83672 5 
1506 1 10.9204 21.3584 -1.5419 6.32624 5 
1507 1 8.5367 20.0102 -0.742675 7.90532 5 
1508 1 6.84477 22.3529 -0.672349 4.82661 5 
1509 1 42.8826 11.6066 -10.0624 0.00124662 1 
1510 1 41.9201 9.37435 -11.5806 0.000203409 1 
1511 1 40.4862 10.2432 -9.25442 0.00239947 1 
1512 1 40.4925 11.8548 -11.6192 0.000245468 1 
1513 1 39.0655 12.7192 -9.28897 0.00206775 1 
1514 1 38.1054 10.4898 -10.8205 0.000297713 1 
1515 1 36.6814 11.3593 -8.49812 0.00357105 1 
1516 1 36.6788 12.9699 -10.8551 0.000462764 1 
1517 1 35.2578 13.8332 -8.52223 0.00436762 1 
1518 1 34.2913 11.6066 -10.0624 0.00124662 1 
1519 1 32.8684 12.4754 -7.74124 0.0104927 1 
1520 1 32.864 14.083 -10.0904 0.00101901 1 
1521 1 31.4444 14.9415 -7.75784 0.00521624 1 
1522 1 30.4742 12.7192 -9.28897 0.00206775 1 
1523 1 29.0531 13.5776 -6.94413 0.0216743 1 
1524 1 29.0469 15.1924 -9.31205 0.00214072 1 
1525 1 27.6287 16.029 -6.94466 0.0128931 1 
1526 1 26.6665 13.8332 -8.52223 0.00436762 1 
1527 1 25.2603 14.6711 -6.17223 0.0138233 1 
1528 1 25.2395 16.2973 -8.54238 0.00211928 1 
1529 1 23.8294 17.1334 -6.20985 0.0123755 1 
1530 1 22.853 14.9415 -7.75784 0.00521624 1 
1531 1 21.4338 15.7778 -5.41032 0.0256873 1 
1532 1 21.4141 17.4048 -7.76956 0.00342193 1 
1533 1 19.9965 18.239 -5.40358 0.0285505 1 
1534 1 19.0374 16.029 -6.94466 0.0128931 1 
1535 1 17.621 16.867 -4.5996 0.0192434 1 
1536 1 17.6048 18.5019 -6.98949 0.00229423 1 
1537 1 16.1818 19.3448 -4.65019 0.0251859 1 
1538 1 15.2381 17.1334 -6.20985 0.0123755 1 
1539 1 13.8589 17.9511 -3.9234 0.181415 1 
1540 1 13.7838 19.6134 -6.24071 0.0143824 1 
1541 1 12.3556 20.4722 -3.91478 0.141638 1 
1542 1 11.4052 18.239 -5.40358 0.0285505 1 
1543 1 9.987 19.0737 -3.03962 0.242433 1 
1544 1 9.94803 20.7062 -5.45499 0.0169972 1 
1545 1 8.46861 21.5242 -3.13663 0.169647 1 
1546 1 7.59046 19.3448 -4.65019 0.0251859 1 
1547 1 6.14101 20.1535 -2.23866 4.3944 5 
1548 1 6.11722 21.8145 -4.68432 0.0344245 1 
1549 1 4.64549 22.6694 -2.32514 5.70088 5 
1550 1 3.76421 20.4722 -3.91478 0.141638 1 
1551 1 2.32904 21.3584 -1.5419 6.32624 5 
1552 1 2.30257 22.9123 -3.99353 0.132245 1 
1553 1 43.6894 23.6915 -1.81107 6.07105 5 
1554 1 41.9218 10.9905 -13.9456 3.38608e-05 1 
1556 1 39.5348 9.6251 -13.1445 4.11439e-05 1 
1558 1 38.1054 12.1051 -13.1826 7.36584e-05 1 
1559 1 37.1479 9.87642 -14.7086 2.41943e-05 1 
1560 1 35.7185 10.7399 -12.384 0.000145361 1 
1561 1 35.7174 12.3556 -14.7465 3.64576e-05 1 
1562 1 34.2892 13.2195 -12.4194 0.000217905 1 
1563 1 33.3305 10.9905 -13.9456 3.38608e-05 1 
1564 1 31.9012 11.8548 -11.6192 0.000245468 1 
1565 1 31.9 13.4694 -13.9819 5.73232e-05 1 
1566 1 30.4722 14.3327 -11.651 0.000245434 1 
1567 1 29.514 12.1051 -13.1826 7.36584e-05 1 
1568 1 28.0875 12.9699 -10.8551 0.000462764 1 
1569 1 28.0835 14.5829 -13.2167 0.000127925 1 
1570 1 26.6577 15.4443 -10.8833 0.000610638 1 
1571 1 25.6978 13.2195 -12.4194 0.000217905 1 
1572 1 24.2726 14.083 -10.0904 0.00101901 1 
1573 1 24.2664 15.6954 -12.4504 0.000201476 1 
1574 1 22.8407 16.5548 -10.1143 0.000667574 1 
1575 1 21.8808 14.3327 -11.651 0.000245434 1 
1576 1 20.4556 15.1924 -9.31205 0.00214072 1 
1577 1 20.4486 16.8058 -11.6802 0.000311963 1 
1578 1 19.0232 17.6569 -9.33463 0.00139962 1 
1579 1 18.0663 15.4443 -10.8833 0.000610638 1 
1580 1 16.6481 16.2973 -8.54238 0.00211928 1 
1581 1 16.6327 17.9148 -10.9121 0.000360572 1 
1582 1 15.2084 18.7664 -8.57292 0.00140646 1 
1583 1 14.2493 16.5548 -10.1143 0.000667574 1 
1584 1 12.8228 17.4048 -7.76956 0.00342193 1 
1585 1 12.8116 19.0226 -10.1434 0.000420124 1 
1586 1 11.382 19.8687 -7.79931 0.00246078 1 
1587 1 10.4318 17.6569 -9.33463 0.00139962 1 
1588 1 9.01345 18.5019 -6.98949 0.00229423 1 
1589 1 8.99328 20.1289 -9.3726 0.000683842 1 
1590 1 7.56359 20.9805 -7.03222 0.00306183 1 
1591 1 6.61709 18.7664 -8.57292 0.00140646 1 
1592 1 5.19243 19.6134 -6.24071 0.0143824 1 
1593 1 5.17278 21.2369 -8.61642 0.000914731 1 
1594 1 3.73863 22.0821 -6.29485 0.00892225 1 
1595 1 2.79064 19.8687 -7.79931 0.00246078 1 
1596 1 1.35669 20.7062 -5.45499 0.0169972 1 
1597 1 1.34309 22.3466 -7.84195 0.00349998 1 
1614 1 27.1261 12.3556 -14.7465 3.64576e-05 1 
1616 1 25.6945 14.8332 -14.782 5.91884e-05 1 
1618 1 23.3087 13.4694 -13.9819 5.73232e-05 1 
1620 1 21.8767 15.9458 -14.0158 7.78537e-05 1 
1622 1 19.4921 14.5829 -13.2167 0.000127925 1 
1624 1 18.0593 17.0573 -13.2493 0.000135364 1 
1625 1 17.1032 14.8332 -14.782 5.91884e-05 1 
1626 1 15.6751 15.6954 -12.4504 0.000201476 1 