ITEM: TIMESTEP
0
ITEM: NUMBER OF ATOMS
2821
ITEM: BOX BOUNDS xy xz yz pp pp ss
0 42.739233094 2.442241891
0 39.19018314 0
-101.2923891673871 99.96509791503557 0
ITEM: ATOMS id type x y z c_csym c_cna 
7308 1 29.2059 38.2665 -14.8242 5.0617e-05 1 
7310 1 30.4298 0.101869 -13.4328 0.000104161 1 
7346 1 31.6487 36.8601 -14.3204 6.52275e-05 1 
7349 1 34.0912 35.4528 -13.8165 7.29856e-05 1 
7350 1 35.3151 37.8868 -12.9272 0.000122368 1 
7352 1 37.7558 38.7786 -14.1273 5.15608e-05 1 
7353 1 37.7563 36.4804 -12.4234 0.000118445 1 
7354 1 38.9803 38.913 -11.5336 0.000169077 1 
7391 1 32.8676 33.0166 -14.7046 3.68647e-05 1 
7394 1 35.3096 31.607 -14.1997 3.93594e-05 1 
7395 1 36.5325 34.0443 -13.3126 6.61388e-05 1 
7397 1 38.9738 34.9382 -14.5104 3.82413e-05 1 
7398 1 38.9717 32.6354 -12.8102 7.27282e-05 1 
7440 1 36.5302 27.761 -14.5785 2.50109e-05 1 
7441 1 37.7504 30.1974 -13.6949 3.7697e-05 1 
7485 1 37.7532 23.9187 -14.9549 2.393e-05 1 
7486 1 38.9722 26.3522 -14.0718 3.76188e-05 1 
7692 1 15.7735 38.2687 -14.8222 4.44695e-05 1 
7694 1 16.9971 0.105176 -13.4303 0.000106802 1 
7715 1 18.2156 36.8629 -14.3185 6.89353e-05 1 
7718 1 20.6575 35.4561 -13.8155 8.58218e-05 1 
7719 1 21.8819 37.8903 -12.9256 0.00013985 1 
7721 1 24.3223 38.7811 -14.1264 6.24992e-05 1 
7722 1 24.3231 36.4839 -12.4235 0.000147597 1 
7723 1 25.5473 38.9154 -11.5326 0.000205839 1 
7724 1 26.7639 37.375 -13.6238 8.42647e-05 1 
7725 1 27.9883 37.5103 -11.0327 0.000274767 1 
7726 1 30.4298 38.4011 -12.2331 0.000180102 1 
7727 1 31.6566 38.5374 -9.63959 0.000628848 1 
7750 1 19.4336 33.0191 -14.7035 4.27571e-05 1 
7753 1 21.8751 31.61 -14.2005 4.34748e-05 1 
7754 1 23.0985 34.048 -13.3135 8.01409e-05 1 
7756 1 25.5404 34.9407 -14.5117 5.0619e-05 1 
7757 1 25.5382 32.6389 -12.8134 8.64123e-05 1 
7758 1 26.7628 35.0764 -11.9248 0.00017408 1 
7759 1 27.9813 33.5324 -14.0114 6.8994e-05 1 
7760 1 29.2055 35.9684 -13.1231 0.000118422 1 
7761 1 29.2021 33.6676 -11.4287 0.000288247 1 
7762 1 30.4295 36.1049 -10.5361 0.000428363 1 
7763 1 31.6475 34.5604 -12.6226 0.000142548 1 
7764 1 32.8734 36.996 -11.7306 0.000245084 1 
7765 1 32.8719 34.6965 -10.0397 0.000551242 1 
7766 1 34.1029 37.1342 -9.13991 0.000889787 1 
7767 1 35.3161 35.5884 -11.2275 0.000261165 1 
7768 1 36.5424 38.0229 -10.3326 0.000430129 1 
7769 1 36.5463 35.7248 -8.63674 0.00112275 1 
7770 1 37.7768 38.1593 -7.73292 0.00172116 1 
7771 1 38.9819 36.6159 -9.83107 0.000396619 1 
7798 1 23.0948 27.763 -14.5802 3.24e-05 1 
7799 1 24.3157 30.2004 -13.6982 4.37061e-05 1 
7801 1 26.7586 31.0952 -14.8967 3.37178e-05 1 
7802 1 26.7559 28.7901 -13.1967 7.20989e-05 1 
7803 1 27.9775 31.2284 -12.3148 0.000153458 1 
7804 1 29.2004 29.6852 -14.3948 4.78531e-05 1 
7805 1 30.4229 32.1228 -13.5106 8.05818e-05 1 
7806 1 30.4185 29.8166 -11.8148 0.000205436 1 
7807 1 31.6431 32.2563 -10.931 0.000315971 1 
7808 1 32.8657 30.7119 -13.0068 7.72544e-05 1 
7809 1 34.0901 33.1504 -12.1195 0.000138939 1 
7810 1 34.0867 30.8432 -10.4256 0.000336548 1 
7811 1 35.3157 33.2842 -9.53555 0.000646935 1 
7812 1 36.5312 31.7395 -11.6132 0.000206611 1 
7813 1 37.7556 34.1788 -10.7245 0.000258284 1 
7814 1 37.7534 31.8722 -9.0233 0.00193133 1 
7815 1 38.9803 34.3118 -8.13416 0.0024125 1 
7843 1 24.3164 23.9197 -14.9572 2.73605e-05 1 
7844 1 25.5361 26.3538 -14.0769 4.73598e-05 1 
7847 1 27.9783 24.9446 -13.574 7.66059e-05 1 
7848 1 29.1977 27.3792 -12.6946 0.00011594 1 
7849 1 30.4228 25.8397 -14.7725 3.16159e-05 1 
7850 1 31.6436 28.2748 -13.8904 5.45436e-05 1 
7851 1 31.6425 25.9688 -12.1885 0.000150521 1 
7852 1 32.8627 28.4041 -11.3087 0.000246737 1 
7853 1 34.0877 26.8649 -13.3825 8.31412e-05 1 
7854 1 35.3084 29.301 -12.4993 0.000122336 1 
7855 1 35.3077 26.9932 -10.7948 0.000459367 1 
7856 1 36.5273 29.4311 -9.91251 0.000743896 1 
7857 1 37.749 27.891 -11.991 0.000116601 1 
7858 1 38.9677 30.3292 -11.109 0.000250784 1 
7859 1 38.9615 28.0201 -9.40341 0.00072331 1 
7890 1 26.7583 22.5118 -14.4546 4.1282e-05 1 
7893 1 29.2016 21.1043 -13.9523 5.06441e-05 1 
7894 1 30.4228 23.5362 -13.0694 8.36807e-05 1 
7896 1 32.8673 24.4312 -14.2656 4.49271e-05 1 
7897 1 32.8691 22.1293 -12.5617 0.000113666 1 
7898 1 34.0894 24.5603 -11.6767 0.000254508 1 
7899 1 35.3118 23.0239 -13.7574 5.08781e-05 1 
7900 1 36.5311 25.4564 -12.8731 7.46287e-05 1 
7901 1 36.5348 23.1541 -11.1646 0.000198681 1 
7902 1 37.7498 25.5845 -10.2813 0.00032281 1 
7903 1 38.974 24.0488 -12.3642 0.000111964 1 
7935 1 27.9795 18.6711 -14.8364 4.42507e-05 1 
7938 1 30.4228 17.2629 -14.3355 5.44596e-05 1 
7939 1 31.6464 19.6974 -13.4488 6.68728e-05 1 
7941 1 34.0902 20.5913 -14.6439 3.52069e-05 1 
7942 1 34.0912 18.2907 -12.9446 0.000103125 1 
7943 1 35.3148 20.7239 -12.0536 0.000153376 1 
7944 1 36.5339 19.1848 -14.1382 5.40415e-05 1 
7945 1 37.7556 21.6178 -13.2495 8.14404e-05 1 
7946 1 37.759 19.3189 -11.5473 0.000208648 1 
7947 1 38.9791 21.7491 -10.6541 0.000390692 1 
7983 1 31.6437 13.416 -14.7176 4.85834e-05 1 
7984 1 32.8669 15.8541 -13.8332 6.22518e-05 1 
7987 1 35.3106 14.4449 -13.3294 6.88634e-05 1 
7988 1 36.535 16.8836 -12.4406 0.000124317 1 
7989 1 37.7537 15.3415 -14.5225 3.96892e-05 1 
7990 1 38.9769 17.7788 -13.6337 7.51984e-05 1 
7991 1 38.9769 15.4766 -11.9383 0.000149007 1 
8030 1 34.0877 12.0058 -14.2127 5.36429e-05 1 
8033 1 36.5306 10.5965 -13.7065 5.95985e-05 1 
8034 1 37.7528 13.036 -12.8254 8.45502e-05 1 
8035 1 38.9736 11.4944 -14.9027 3.97498e-05 1 
8063 1 35.3101 8.15959 -14.5847 6.15476e-05 1 
8066 1 37.7532 6.75163 -14.0763 7.00569e-05 1 
8067 1 38.9726 9.18743 -13.1997 9.33754e-05 1 
8080 1 36.5335 4.31879 -14.9542 4.26097e-05 1 
8083 1 38.9765 2.9128 -14.446 4.71782e-05 1 
8087 1 42.6391 38.2662 -14.823 4.14812e-05 1 
8089 1 3.56543 0.103762 -13.4308 9.44475e-05 1 
8096 1 4.78392 36.8609 -14.3184 6.13137e-05 1 
8099 1 7.22533 35.4546 -13.8146 7.32583e-05 1 
8100 1 8.44957 37.8896 -12.9253 0.000119517 1 
8102 1 10.8904 38.7817 -14.1256 5.0195e-05 1 
8103 1 10.8902 36.484 -12.4225 0.000125393 1 
8104 1 12.1145 38.9169 -11.5321 0.000171907 1 
8105 1 13.3314 37.3763 -13.6224 7.18306e-05 1 
8106 1 14.5552 37.5126 -11.0314 0.000249442 1 
8107 1 16.9973 38.4041 -12.2308 0.000176488 1 
8108 1 18.2246 38.541 -9.63592 0.00067689 1 
8116 1 6.00192 33.0173 -14.702 3.59627e-05 1 
8119 1 8.44335 31.6087 -14.1977 3.83522e-05 1 
8120 1 9.66603 34.0471 -13.3116 6.87213e-05 1 
8122 1 12.1079 34.9409 -14.5099 4.33342e-05 1 
8123 1 12.1056 32.6387 -12.8105 7.81918e-05 1 
8124 1 13.3295 35.0774 -11.923 0.000159242 1 
8125 1 14.5484 33.5333 -14.0089 6.56587e-05 1 
8126 1 15.7724 35.9705 -13.1212 0.000113914 1 
8127 1 15.7685 33.6698 -11.4265 0.000293897 1 
8128 1 16.9963 36.1085 -10.534 0.000448252 1 
8129 1 18.214 34.5636 -12.6208 0.00015435 1 
8130 1 19.4403 37 -11.7282 0.000278484 1 
8131 1 19.4384 34.7023 -10.0376 0.000613394 1 
8132 1 20.6705 37.1395 -9.13547 0.00102912 1 
8133 1 21.8826 35.5934 -11.2268 0.000308165 1 
8134 1 23.1096 38.0269 -10.3304 0.000492745 1 
8135 1 23.1134 35.7321 -8.63611 0.00108856 1 
8136 1 24.345 38.1632 -7.7293 0.00176721 1 
8137 1 25.5498 36.6201 -9.83124 0.000468751 1 
8138 1 26.7756 39.0489 -8.93385 0.000641484 1 
8139 1 26.7814 36.7522 -7.23513 0.00199035 1 
8140 1 28.008 39.1774 -6.32823 0.00272121 1 
8141 1 29.2155 37.6458 -8.44009 0.000971943 1 
8142 1 30.4483 37.7822 -5.85205 0.00629343 1 
8143 1 32.8918 38.6768 -7.04565 0.00226733 1 
8144 1 34.1501 38.8335 -4.45636 0.0308429 1 
8156 1 9.66429 27.7624 -14.5754 3.36602e-05 1 
8157 1 10.8841 30.1997 -13.6939 4.06553e-05 1 
8159 1 13.3263 31.0952 -14.8931 3.277e-05 1 
8160 1 13.3247 28.7899 -13.1907 7.45186e-05 1 
8161 1 14.5448 31.2291 -12.3109 0.000157812 1 
8162 1 15.7677 29.6859 -14.3905 5.57767e-05 1 
8163 1 16.9894 32.1245 -13.5081 8.88068e-05 1 
8164 1 16.9853 29.8181 -11.8105 0.00025553 1 
8165 1 18.2091 32.2601 -10.9293 0.000367912 1 
8166 1 19.4314 30.7145 -13.0055 0.000100011 1 
8167 1 20.6558 33.1547 -12.1193 0.00016307 1 
8168 1 20.6519 30.8483 -10.4267 0.00039064 1 
8169 1 21.8815 33.2919 -9.53703 0.000649784 1 
8170 1 23.0967 31.7443 -11.6161 0.000194691 1 
8171 1 24.3224 34.1841 -10.7266 0.000265155 1 
8172 1 24.3205 31.8795 -9.03006 0.00151615 1 
8173 1 25.5493 34.3189 -8.13824 0.0016379 1 
8174 1 26.7582 32.7739 -10.2308 0.000423711 1 
8175 1 27.9863 35.2123 -9.33854 0.000682922 1 
8176 1 27.9732 32.9085 -7.65102 0.00316286 1 
8177 1 29.2096 35.345 -6.75488 0.00381625 1 
8178 1 30.4224 33.8033 -8.85145 0.00133548 1 
8179 1 31.6579 36.2423 -7.95125 0.00147272 1 
8180 1 31.6463 33.9353 -6.28739 0.00763662 1 
8181 1 32.8995 36.3798 -5.37265 0.0184655 1 
8182 1 34.1022 34.8332 -7.46266 0.00304099 1 
8183 1 35.3437 37.2751 -6.54719 0.0055792 1 
8184 1 35.36 34.9631 -4.9026 0.0511647 1 
8185 1 36.6263 37.4075 -3.96991 0.0676371 1 
8186 1 37.7907 35.8575 -6.04276 0.0121674 1 
8187 1 39.0258 38.2872 -5.12468 0.0124937 1 
8188 1 39.013 35.9949 -3.39971 0.0669821 1 
8202 1 10.8875 23.9203 -14.95 2.88304e-05 1 
8203 1 12.1062 26.3538 -14.0697 4.87295e-05 1 
8206 1 14.5487 24.9453 -13.5639 8.04746e-05 1 
8207 1 15.7664 27.3797 -12.6868 0.000137731 1 
8208 1 16.9904 25.8405 -14.7657 4.60351e-05 1 
8209 1 18.21 28.276 -13.8865 7.93303e-05 1 
8210 1 18.2101 25.97 -12.1801 0.000217226 1 
8211 1 19.4285 28.4065 -11.3057 0.00035225 1 
8212 1 20.6528 26.8667 -13.3803 0.000107945 1 
8213 1 21.8733 29.3041 -12.5006 0.000137264 1 
8214 1 21.8723 26.9963 -10.7951 0.000526512 1 
8215 1 23.0925 29.4364 -9.91813 0.000745149 1 
8216 1 24.3134 27.8939 -11.9961 0.000140095 1 
8217 1 25.5339 30.3334 -11.1156 0.000230712 1 
8218 1 25.527 28.0243 -9.41404 0.000821643 1 
8219 1 26.7462 30.4679 -8.53504 0.00176634 1 
8220 1 27.9708 28.921 -10.617 0.000323414 1 
8221 1 29.1928 31.3617 -9.73854 0.00078819 1 
8222 1 29.1767 29.0519 -8.04493 0.00162973 1 
8223 1 30.4035 31.4932 -7.17599 0.00543012 1 
8224 1 31.6338 29.947 -9.24192 0.000836307 1 
8225 1 32.8649 32.3891 -8.3591 0.00137188 1 
8226 1 32.8472 30.0764 -6.6789 0.00498431 1 
8227 1 34.1001 32.5202 -5.79869 0.0134169 1 
8228 1 35.3101 30.9752 -7.84485 0.00231009 1 
8229 1 36.5506 33.4165 -6.94991 0.00785195 1 
8230 1 36.5317 31.1212 -5.24634 0.00847024 1 
8231 1 37.763 33.572 -4.32337 0.0237669 1 
8232 1 38.9688 32.0092 -6.41194 0.014776 1 
8248 1 13.3299 22.5133 -14.4441 3.89446e-05 1 
8251 1 15.7725 21.107 -13.9386 5.43465e-05 1 
8252 1 16.9922 23.5378 -13.057 0.000108885 1 
8254 1 19.4334 24.4325 -14.2593 6.16636e-05 1 
8255 1 19.4361 22.132 -12.5492 0.000144378 1 
8256 1 20.6548 24.5624 -11.6701 0.000300323 1 
8257 1 21.8757 23.0255 -13.7536 5.52653e-05 1 
8258 1 23.0947 25.4582 -12.8742 9.42877e-05 1 
8259 1 23.0974 23.1561 -11.1621 0.0002005 1 
8260 1 24.3129 25.5871 -10.2864 0.000390865 1 
8261 1 25.5359 24.0498 -12.3701 0.000127 1 
8262 1 26.753 26.4831 -11.4935 0.000252773 1 
8263 1 26.7523 24.177 -9.7822 0.000711219 1 
8264 1 27.9626 26.6098 -8.91491 0.00154831 1 
8265 1 29.1954 25.0727 -10.9914 0.000412062 1 
8266 1 30.4122 27.508 -10.1165 0.000505344 1 
8267 1 30.4068 25.1982 -8.41461 0.00244547 1 
8268 1 31.6171 27.6381 -7.5465 0.00252208 1 
8269 1 32.8602 26.0956 -9.60567 0.000808162 1 
8270 1 34.0794 28.5323 -8.72981 0.00110887 1 
8271 1 34.0753 26.2196 -7.02656 0.00518114 1 
8272 1 35.2915 28.6674 -6.15344 0.00474549 1 
8273 1 36.525 27.1202 -8.20227 0.00305916 1 
8274 1 37.7401 29.564 -7.31934 0.00465977 1 
8275 1 37.7332 27.2441 -5.59621 0.0286932 1 
8276 1 38.9412 29.6915 -4.71673 0.0381641 1 
8293 1 14.5511 18.6746 -14.8241 4.09906e-05 1 
8296 1 16.9927 17.2678 -14.3213 6.28277e-05 1 
8297 1 18.2151 19.7014 -13.4338 9.37824e-05 1 
8299 1 20.6553 20.5934 -14.6361 3.89556e-05 1 
8300 1 20.6564 18.2951 -12.9312 0.000126808 1 
8301 1 21.8783 20.7268 -12.0441 0.00015481 1 
8302 1 23.0962 19.1864 -14.134 5.24431e-05 1 
8303 1 24.3171 21.6186 -13.2501 7.12096e-05 1 
8304 1 24.3185 19.3205 -11.5439 0.00020349 1 
8305 1 25.5385 21.7495 -10.6582 0.000344933 1 
8306 1 26.7582 20.2116 -12.7502 0.000123603 1 
8307 1 27.978 22.642 -11.8684 0.000203497 1 
8308 1 27.979 20.3434 -10.1623 0.000593616 1 
8309 1 29.1953 22.7697 -9.28277 0.00124386 1 
8310 1 30.4234 21.2355 -11.3663 0.000210036 1 
8311 1 31.6438 23.6643 -10.4835 0.000449491 1 
8312 1 31.6476 21.3647 -8.78005 0.00101847 1 
8313 1 32.8666 23.7891 -7.89548 0.00311859 1 
8314 1 34.0948 22.2592 -9.96912 0.000630061 1 
8315 1 35.3123 24.687 -9.08259 0.00168262 1 
8316 1 35.3249 22.3878 -7.36493 0.00343123 1 
8317 1 36.5333 24.81 -6.47274 0.0135225 1 
8318 1 37.7562 23.2816 -8.56438 0.000901883 1 
8319 1 38.9594 25.7086 -7.68515 0.00228936 1 
8320 1 38.966 23.4036 -5.95072 0.00621803 1 
8342 1 18.2118 13.4218 -14.7059 3.89445e-05 1 
8343 1 19.4338 15.8597 -13.8195 7.77203e-05 1 
8346 1 21.8741 14.4496 -13.3189 7.51793e-05 1 
8347 1 23.0962 16.8869 -12.432 0.00014308 1 
8348 1 24.315 15.3425 -14.5196 5.108e-05 1 
8349 1 25.5366 17.7785 -13.635 8.61246e-05 1 
8350 1 25.5348 15.4768 -11.9368 0.000194686 1 
8351 1 26.7575 17.9126 -11.0498 0.000335805 1 
8352 1 27.9777 16.3695 -13.1382 0.000136658 1 
8353 1 29.2009 18.8045 -12.2521 0.000172553 1 
8354 1 29.1983 16.5037 -10.5594 0.000551877 1 
8355 1 30.424 18.9378 -9.66872 0.000698077 1 
8356 1 31.6458 17.397 -11.7532 0.000212161 1 
8357 1 32.8718 19.8303 -10.8611 0.000354044 1 
8358 1 32.8735 17.5314 -9.17257 0.000791341 1 
8359 1 34.1051 19.9624 -8.26792 0.00213195 1 
8360 1 35.3187 18.425 -10.3562 0.000451266 1 
8361 1 36.5423 20.856 -9.45719 0.000619807 1 
8362 1 36.554 18.5582 -7.76233 0.00194214 1 
8363 1 37.7737 20.9842 -6.84982 0.00289094 1 
8364 1 38.9869 19.4525 -8.95089 0.000708842 1 
8388 1 20.6531 12.011 -14.203 4.15637e-05 1 
8391 1 23.0938 10.5995 -13.7005 5.08607e-05 1 
8392 1 24.3134 13.0381 -12.8202 9.33718e-05 1 
8393 1 25.5355 11.4941 -14.9017 4.82891e-05 1 
8394 1 26.7557 13.9319 -14.0213 8.69298e-05 1 
8395 1 26.7529 11.625 -12.3227 0.000204143 1 
8396 1 27.9739 14.0649 -11.4443 0.00037498 1 
8397 1 29.198 12.5202 -13.5221 0.000124985 1 
8398 1 30.4208 14.9593 -12.6406 0.000161595 1 
8399 1 30.4162 12.6512 -10.949 0.000459352 1 
8400 1 31.6431 15.0927 -10.0666 0.000579947 1 
8401 1 32.8655 13.5479 -12.139 0.000161555 1 
8402 1 34.0915 15.988 -11.2517 0.000226354 1 
8403 1 34.0908 13.68 -9.56422 0.000654748 1 
8404 1 35.322 16.1222 -8.6709 0.000882951 1 
8405 1 36.5352 14.5783 -10.7478 0.000276102 1 
8406 1 37.7623 17.0185 -9.85317 0.000456832 1 
8407 1 37.7632 14.7105 -8.16566 0.00198206 1 
8408 1 38.9946 17.1506 -7.26108 0.00211747 1 
8433 1 21.875 8.16281 -14.5795 4.28456e-05 1 
8436 1 24.3173 6.75248 -14.074 6.91328e-05 1 
8437 1 25.5348 9.18721 -13.1981 0.000104195 1 
8439 1 27.9779 10.0825 -14.3998 8.76444e-05 1 
8440 1 27.9776 7.77507 -12.6939 0.000194281 1 
8441 1 29.1949 10.2112 -11.8226 0.000336255 1 
8442 1 30.422 8.67133 -13.8948 0.000125982 1 
8443 1 31.6423 11.1083 -13.019 0.000145995 1 
8444 1 31.6407 8.79867 -11.3156 0.000457651 1 
8445 1 32.8625 11.2377 -10.4442 0.000490626 1 
8446 1 34.0871 9.69765 -12.5106 0.000195511 1 
8447 1 35.3099 12.1371 -11.6321 0.000209253 1 
8448 1 35.3072 9.82713 -9.92939 0.000836795 1 
8449 1 36.5345 12.2688 -9.05011 0.00151229 1 
8450 1 37.7501 10.7277 -11.1251 0.000213103 1 
8451 1 38.9739 13.1699 -10.2456 0.000431662 1 
8452 1 38.9637 10.8612 -8.54511 0.00133222 1 
8465 1 23.0989 4.32037 -14.9521 4.1797e-05 1 
8468 1 25.5421 2.91291 -14.4457 6.03811e-05 1 
8469 1 26.7607 5.34287 -13.5677 0.000119487 1 
8471 1 29.2031 6.23767 -14.7704 7.75067e-05 1 
8472 1 29.2058 3.93546 -13.0592 0.000152962 1 
8473 1 30.4233 6.36507 -12.1853 0.000290848 1 
8474 1 31.648 4.82999 -14.2616 9.36952e-05 1 
8475 1 32.8673 7.26204 -13.3856 0.000159977 1 
8476 1 32.8706 4.95878 -11.6715 0.000350741 1 
8477 1 34.0879 7.38987 -10.8001 0.000613751 1 
8478 1 35.3117 5.85495 -12.8746 0.000129727 1 
8479 1 36.5301 8.28894 -12.0003 0.000180743 1 
8480 1 36.5318 5.98369 -10.2845 0.000378294 1 
8481 1 37.7454 8.41856 -9.41658 0.000731061 1 
8482 1 38.972 6.88054 -11.4904 0.000264089 1 
8486 1 27.9858 1.50684 -13.9393 7.63277e-05 1 
8488 1 31.6516 2.53073 -12.5489 0.000169843 1 
8489 1 32.8712 0.993834 -14.6336 4.79191e-05 1 
8490 1 34.0924 3.42415 -13.7519 7.624e-05 1 
8491 1 34.0959 1.12705 -12.0397 0.000156301 1 
8492 1 35.316 3.55477 -11.1582 0.000208056 1 
8493 1 36.5356 2.01913 -13.2431 8.05635e-05 1 
8494 1 37.7551 4.4487 -12.3639 0.000134758 1 
8495 1 37.7597 2.15085 -10.6471 0.000322093 1 
8496 1 38.9746 4.57688 -9.77129 0.0006085 1 
8497 1 38.978 0.614782 -12.7363 0.000101105 1 
8498 1 40.1971 37.3731 -13.6231 6.68606e-05 1 
8499 1 41.4207 37.5087 -11.0317 0.000233146 1 
8500 1 3.56561 38.4015 -12.2313 0.000163351 1 
8501 1 4.79212 38.5384 -9.63632 0.000635279 1 
8502 1 40.1953 35.0735 -11.9226 0.000147247 1 
8503 1 41.414 33.5306 -14.0085 5.88238e-05 1 
8504 1 2.3408 35.9675 -13.121 0.000104906 1 
8505 1 2.33619 33.6662 -11.4249 0.000295701 1 
8506 1 3.56372 36.1049 -10.5332 0.00043372 1 
8507 1 4.78169 34.5611 -12.6197 0.000142951 1 
8508 1 6.00781 36.9979 -11.7279 0.000254738 1 
8509 1 6.00471 34.6995 -10.036 0.000601151 1 
8510 1 7.23649 37.1378 -9.13536 0.00097327 1 
8511 1 8.44931 35.5921 -11.2258 0.000271287 1 
8512 1 9.67613 38.027 -10.3305 0.000435469 1 
8513 1 9.67843 35.7314 -8.63578 0.000993629 1 
8514 1 10.9096 38.1646 -7.73054 0.00162652 1 
8515 1 12.1157 36.621 -9.83082 0.000415205 1 
8516 1 13.3418 39.0515 -8.9342 0.000545592 1 
8517 1 13.3458 36.7543 -7.23594 0.00186645 1 
8518 1 14.5725 39.1808 -6.33051 0.00233149 1 
8519 1 15.782 37.6489 -8.43869 0.000874974 1 
8520 1 17.0149 37.7851 -5.84808 0.00512881 1 
8521 1 19.462 38.6797 -7.03683 0.00261233 1 
8522 1 20.7262 38.8278 -4.43075 0.0218226 1 
8523 1 40.1923 31.0931 -14.8931 2.70108e-05 1 
8524 1 40.1904 28.7877 -13.1904 6.81642e-05 1 
8525 1 41.41 31.226 -12.3093 0.00015773 1 
8526 1 2.33647 29.6839 -14.3894 4.89611e-05 1 
8527 1 3.55765 32.1221 -13.5066 8.17501e-05 1 
8528 1 3.5529 29.8158 -11.8078 0.000253596 1 
8529 1 4.77583 32.2572 -10.9267 0.000374126 1 
8530 1 5.99946 30.7127 -13.0028 9.18802e-05 1 
8531 1 7.22316 33.1528 -12.1172 0.000148067 1 
8532 1 7.21884 30.8463 -10.423 0.000381069 1 
8533 1 8.44745 33.29 -9.53465 0.000621619 1 
8534 1 9.6642 31.7431 -11.6128 0.000177335 1 
8535 1 10.8889 34.1836 -10.7248 0.000239137 1 
8536 1 10.8871 31.8784 -9.02662 0.00139389 1 
8537 1 12.1144 34.3191 -8.13726 0.00160636 1 
8538 1 13.3248 32.7745 -10.2279 0.000404694 1 
8539 1 14.5522 35.2145 -9.33731 0.0006623 1 
8540 1 14.5387 32.9104 -7.64904 0.003175 1 
8541 1 15.7744 35.3489 -6.75412 0.0036767 1 
8542 1 16.9883 33.808 -8.84985 0.00139794 1 
8543 1 18.2249 36.2481 -7.94764 0.00168142 1 
8544 1 18.2118 33.9445 -6.2858 0.00759853 1 
8545 1 19.4684 36.3883 -5.36305 0.0133887 1 
8546 1 20.67 34.8435 -7.45771 0.00278274 1 
8547 1 21.9132 37.2818 -6.53783 0.00448552 1 
8548 1 21.928 34.9823 -4.88584 0.0215291 1 
8549 1 23.1889 37.4173 -3.93872 0.0308179 1 
8550 1 24.3567 35.8673 -6.04134 0.00576816 1 
8551 1 25.5924 38.2886 -5.11727 0.00948678 1 
8552 1 25.5868 35.9906 -3.41311 0.0476527 1 
8553 1 26.8224 38.3732 -2.46873 0.121673 1 
8554 1 28.0074 36.8672 -4.63196 0.0206217 1 
8555 1 29.2728 37.0253 -2.09857 0.279858 1 
8556 1 31.7171 37.9473 -3.2885 0.102552 1 
8557 1 33.1306 37.9857 -0.819347 5.72703 5 
8558 1 35.4838 38.9397 -1.91773 1.64223 5 
8561 1 41.4148 24.944 -13.5649 7.16056e-05 1 
8562 1 2.33481 27.3781 -12.6854 0.000130315 1 
8563 1 3.55995 25.8396 -14.7646 4.2074e-05 1 
8564 1 4.77887 28.2747 -13.8841 7.25925e-05 1 
8565 1 4.77903 25.9692 -12.1776 0.000214498 1 
8566 1 5.99649 28.4051 -11.3019 0.00034665 1 
8567 1 7.22243 26.866 -13.3762 0.000106376 1 
8568 1 8.4419 29.303 -12.4963 0.00013206 1 
8569 1 8.44191 26.9958 -10.7894 0.000519958 1 
8570 1 9.66083 29.4352 -9.91267 0.000717935 1 
8571 1 10.8831 27.8935 -11.9895 0.000132265 1 
8572 1 12.1021 30.3329 -11.1105 0.00020356 1 
8573 1 12.0975 28.0241 -9.4055 0.000700371 1 
8574 1 13.3141 30.468 -8.52932 0.00153076 1 
8575 1 14.5396 28.9214 -10.6098 0.000336033 1 
8576 1 15.7595 31.3639 -9.73491 0.000814031 1 
8577 1 15.7457 29.0542 -8.03741 0.0017122 1 
8578 1 16.9697 31.4995 -7.17356 0.00549004 1 
8579 1 18.2 29.9507 -9.23902 0.001083 1 
8580 1 19.4306 32.3974 -8.35921 0.0015805 1 
8581 1 19.4127 30.0861 -6.68204 0.00589336 1 
8582 1 20.6663 32.5375 -5.80164 0.00913738 1 
8583 1 21.8755 30.9846 -7.85148 0.00186794 1 
8584 1 23.117 33.4293 -6.95462 0.00409872 1 
8585 1 23.1033 31.1335 -5.26777 0.00549575 1 
8586 1 24.3428 33.5754 -4.34606 0.0157351 1 
8587 1 25.544 32.0167 -6.4269 0.0141388 1 
8588 1 26.7689 34.4448 -5.54028 0.0142812 1 
8589 1 26.7462 32.1241 -3.78534 0.189019 1 
8590 1 27.9786 34.5046 -2.96251 0.412197 1 
8591 1 29.1779 33.0277 -5.08778 0.0438178 1 
8592 1 30.4422 35.4733 -4.19508 0.0660525 1 
8593 1 30.473 33.1238 -2.61189 0.725957 1 
8594 1 31.8313 35.6114 -1.77969 1.05908 1 
8595 1 32.9204 34.0511 -3.75855 0.1662 1 
8596 1 34.2232 36.5226 -2.86726 0.726375 1 
8597 1 34.2623 34.4245 -1.05797 2.10794 5 
8599 1 36.588 35.1871 -2.23931 0.601989 1 
8600 1 37.8922 37.569 -1.2351 1.12651 5 
8601 1 40.1964 22.5119 -14.4479 4.07378e-05 1 
8604 1 2.34305 21.1063 -13.9408 6.36803e-05 1 
8605 1 3.56214 23.5373 -13.0566 0.000110745 1 
8607 1 6.00377 24.4323 -14.2565 6.34262e-05 1 
8608 1 6.00733 22.1326 -12.5468 0.000150862 1 
8609 1 7.22525 24.5627 -11.6656 0.000299512 1 
8610 1 8.44727 23.0262 -13.7482 6.00397e-05 1 
8611 1 9.66564 25.4584 -12.8676 9.43404e-05 1 
8612 1 9.66995 23.1576 -11.1544 0.000190274 1 
8613 1 10.8848 25.5878 -10.2774 0.000335375 1 
8614 1 12.1083 24.0509 -12.3597 0.000117501 1 
8615 1 13.324 26.4834 -11.4837 0.000237373 1 
8616 1 13.3271 24.1788 -9.76764 0.000594473 1 
8617 1 14.5355 26.6106 -8.90186 0.00147668 1 
8618 1 15.7673 25.0736 -10.9769 0.000427341 1 
8619 1 16.9811 27.5088 -10.1071 0.00064263 1 
8620 1 16.982 25.199 -8.39326 0.00270496 1 
8621 1 18.1862 27.6398 -7.53732 0.00355072 1 
8622 1 19.428 26.098 -9.5966 0.00113334 1 
8623 1 20.6449 28.5373 -8.73042 0.00151635 1 
8624 1 20.6446 26.2258 -7.01902 0.00711352 1 
8625 1 21.8584 28.6764 -6.16268 0.00688793 1 
8626 1 23.0903 27.1259 -8.20816 0.00318177 1 
8627 1 24.3085 29.5717 -7.33284 0.00483406 1 
8628 1 24.3011 27.2563 -5.6098 0.0287052 1 
8629 1 25.5198 29.704 -4.7388 0.046892 1 
8630 1 26.7262 28.1535 -6.83983 0.0078086 1 
8631 1 27.9455 30.6029 -5.9593 0.0156378 1 
8632 1 27.8802 28.2894 -4.28594 0.0922686 1 
8633 1 29.1087 30.7603 -3.37178 0.295034 1 
8634 1 30.357 29.1897 -5.48227 0.0194292 1 
8635 1 31.6304 31.6164 -4.64208 0.0493785 1 
8636 1 31.5615 29.3519 -2.98275 0.0631093 1 
8637 1 32.8737 31.826 -2.05361 0.339405 1 
8638 1 34.0644 30.2343 -4.11417 0.0098515 1 
8639 1 35.3126 32.701 -3.20035 0.109416 1 
8640 1 35.2861 30.3692 -1.57045 0.521002 1 
9647 1 7.38415 2.21713 -0.91591 7.13759 5 
8642 1 37.7309 31.2573 -2.64863 1.62405 5 
8643 1 38.9523 33.6754 -1.726 4.28279 5 
8647 1 41.4187 18.6731 -14.8287 4.8174e-05 1 
8650 1 3.56454 17.2672 -14.3237 7.13539e-05 1 
8651 1 4.78683 19.7016 -13.4338 0.000106118 1 
8653 1 7.2272 20.5943 -14.6326 4.45698e-05 1 
8654 1 7.22946 18.2966 -12.9282 0.000131216 1 
8655 1 8.45118 20.7286 -12.0386 0.000152138 1 
8656 1 9.66914 19.1885 -14.1272 5.31663e-05 1 
8657 1 10.89 21.6204 -13.2411 7.37384e-05 1 
8658 1 10.8931 19.3238 -11.5338 0.00017703 1 
8659 1 12.1133 21.7524 -10.6455 0.000315635 1 
8660 1 13.3321 20.215 -12.7363 0.000101294 1 
8661 1 14.5516 22.6443 -11.8524 0.000179075 1 
8662 1 14.5561 20.3488 -10.1411 0.00038672 1 
8663 1 15.7735 22.7735 -9.25701 0.00097492 1 
8664 1 16.996 21.2398 -11.3455 0.000212805 1 
8665 1 18.2142 23.6669 -10.4661 0.000549 1 
8666 1 18.2231 21.3727 -8.74772 0.000795858 1 
8667 1 19.4395 23.7946 -7.8719 0.00323656 1 
8668 1 20.6617 22.2637 -9.95295 0.000662622 1 
8669 1 21.8776 24.691 -9.07721 0.00170883 1 
8670 1 21.8933 22.3962 -7.34596 0.00285452 1 
8671 1 23.1007 24.8194 -6.47202 0.012129 1 
8672 1 24.3185 23.2845 -8.5654 0.00081159 1 
8673 1 25.523 25.7132 -7.69707 0.00251011 1 
8674 1 25.5307 23.4068 -5.95981 0.00643374 1 
8675 1 26.6993 25.8395 -5.10692 0.0234368 1 
8676 1 27.958 24.3005 -7.1939 0.00416519 1 
8677 1 29.1526 26.735 -6.3494 0.00927149 1 
8678 1 29.149 24.4222 -4.61541 0.0265254 1 
8679 1 30.3186 26.8476 -3.82362 0.0931535 1 
8680 1 31.6117 25.3235 -5.85534 0.0130081 1 
8681 1 32.8142 27.7709 -4.99668 0.0120972 1 
8682 1 32.8066 25.4581 -3.31313 0.0754898 1 
8683 1 34.041 27.9359 -2.47781 0.126315 1 
8684 1 35.2791 26.3505 -4.45764 0.0410142 1 
8685 1 36.5029 28.8129 -3.58672 0.057953 1 
8686 1 36.4445 26.5927 -1.90188 5.59763 5 
8687 1 37.6727 29.065 -0.9081 7.62605 5 
8688 1 38.8993 27.3914 -2.93663 0.216804 1 
8695 1 4.78403 13.4216 -14.7074 4.56979e-05 1 
8696 1 6.00667 15.8604 -13.819 8.43249e-05 1 
8699 1 8.44758 14.4521 -13.3151 7.91994e-05 1 
8700 1 9.67037 16.8901 -12.4251 0.000133634 1 
8701 1 10.8879 15.3461 -14.5121 4.42279e-05 1 
8702 1 12.1101 17.7823 -13.6242 7.13604e-05 1 
8703 1 12.1095 15.4825 -11.9253 0.000158289 1 
8704 1 13.3335 17.9185 -11.0334 0.00024403 1 
8705 1 14.5508 16.3755 -13.1233 0.000108183 1 
8706 1 15.7742 18.81 -12.2332 0.000165944 1 
8707 1 15.7738 16.5133 -10.5365 0.000430886 1 
8708 1 17.0004 18.9468 -9.63904 0.000651626 1 
8709 1 18.2162 17.4047 -11.732 0.000264038 1 
8710 1 19.4406 19.8367 -10.8393 0.000423675 1 
8711 1 19.4447 17.544 -9.14047 0.00101373 1 
8712 1 20.6736 19.9738 -8.23731 0.00193164 1 
8713 1 21.882 18.4316 -10.3384 0.000490304 1 
8714 1 23.1041 20.8601 -9.44668 0.000603216 1 
8715 1 23.1146 18.5677 -7.74007 0.00186305 1 
8716 1 24.3353 20.9893 -6.83992 0.00297026 1 
8717 1 25.5431 19.4534 -8.94994 0.000729475 1 
8718 1 26.7598 21.8773 -8.0589 0.00223365 1 
8719 1 26.7708 19.5803 -6.34975 0.00305963 1 
8720 1 27.9813 22.0018 -5.44496 0.0224022 1 
8721 1 29.1998 20.4735 -7.57376 0.00367762 1 
8722 1 30.4075 22.8943 -6.70415 0.00933029 1 
8723 1 30.4329 20.6015 -4.99318 0.0218485 1 
8724 1 31.6068 23.0251 -4.15169 0.100947 1 
8725 1 32.8806 21.491 -6.19372 0.00659082 1 
8726 1 34.0924 23.9094 -5.29186 0.026009 1 
8727 1 34.1343 21.5951 -3.60575 0.0792652 1 
8728 1 35.3156 24.0507 -2.67973 6.97828 5 
8729 1 36.5621 22.5068 -4.73898 0.0196905 1 
8730 1 37.729 24.9362 -3.8174 0.144963 1 
8731 1 37.7965 22.6341 -2.05633 4.86393 5 
8732 1 38.7858 25.0848 -1.08488 7.63194 5 
8741 1 7.22561 12.0126 -14.2017 5.08105e-05 1 
8744 1 9.66607 10.603 -13.6964 4.97495e-05 1 
8745 1 10.8869 13.0428 -12.8129 8.26148e-05 1 
8746 1 12.1071 11.4988 -14.8948 3.37044e-05 1 
8747 1 13.3282 13.9375 -14.0108 6.28644e-05 1 
8748 1 13.3255 11.6323 -12.3125 0.000156439 1 
8749 1 14.5479 14.0737 -11.4285 0.000282415 1 
8750 1 15.7689 12.5275 -13.5097 8.39356e-05 1 
8751 1 16.9917 14.9673 -12.6234 0.000144477 1 
8752 1 16.9879 12.6626 -10.9312 0.000348586 1 
8753 1 18.215 15.1056 -10.0408 0.000590517 1 
8754 1 19.433 13.5567 -12.1225 0.000151265 1 
8755 1 20.6572 15.9964 -11.2324 0.000292775 1 
8756 1 20.6571 13.6931 -9.54127 0.000638402 1 
8757 1 21.8856 16.1346 -8.64393 0.00109819 1 
8758 1 23.0958 14.5846 -10.7345 0.000280594 1 
8759 1 24.3198 17.0223 -9.84363 0.000511114 1 
8760 1 24.3194 14.7181 -8.14957 0.00186364 1 
8761 1 25.5472 17.1533 -7.25234 0.0022625 1 
8762 1 26.7543 15.6107 -9.35658 0.00083315 1 
8763 1 27.9795 18.0451 -8.46573 0.00138313 1 
8764 1 27.9717 15.7398 -6.78137 0.00416533 1 
8765 1 29.2049 18.174 -5.88941 0.00681396 1 
8766 1 30.4218 16.6367 -7.98725 0.00208747 1 
8767 1 31.6547 19.069 -7.08792 0.00242944 1 
8768 1 31.6571 16.7636 -5.42687 0.0135758 1 
8769 1 32.9087 19.1956 -4.50845 0.0204998 1 
8770 1 34.113 17.6644 -6.59184 0.00378203 1 
8771 1 35.3565 20.0898 -5.66101 0.0153385 1 
8772 1 35.3883 17.7876 -4.00992 0.0264398 1 
8773 1 36.6198 20.2109 -2.99596 0.118892 1 
8774 1 37.7993 18.6847 -5.15271 0.0125041 1 
8775 1 38.994 21.0964 -4.2179 0.0204234 1 
8776 1 39.0351 18.7714 -2.51678 0.0890273 1 
8787 1 8.44625 8.16506 -14.5775 4.25115e-05 1 
8790 1 10.8877 6.75624 -14.0705 5.37086e-05 1 
8791 1 12.1062 9.19266 -13.1919 7.94996e-05 1 
8793 1 14.5483 10.0885 -14.3914 5.60568e-05 1 
8794 1 14.5477 7.78178 -12.6868 0.000143364 1 
8795 1 15.7658 10.2202 -11.8112 0.000251883 1 
8796 1 16.9906 8.67772 -13.8865 8.27849e-05 1 
8797 1 18.2106 11.1161 -13.0068 9.63591e-05 1 
8798 1 18.2092 8.80748 -11.3053 0.000355825 1 
8799 1 19.4305 11.2491 -10.4282 0.000374769 1 
8800 1 20.6528 9.70404 -12.5011 0.000142258 1 
8801 1 21.8736 12.1441 -11.6198 0.000184462 1 
8802 1 21.8717 9.83498 -9.9185 0.000744567 1 
8803 1 23.0955 12.2778 -9.0352 0.00148372 1 
8804 1 24.311 10.7305 -11.1192 0.000242768 1 
8805 1 25.5308 13.1712 -10.2411 0.000474742 1 
8806 1 25.5215 10.8628 -8.54032 0.00178184 1 
8807 1 26.7418 13.3032 -7.66649 0.00347532 1 
8808 1 27.9658 11.7556 -9.75075 0.000953765 1 
8809 1 29.1901 14.1976 -8.87581 0.00178013 1 
8810 1 29.173 11.8853 -7.19433 0.0057864 1 
8811 1 30.4076 14.3252 -6.32496 0.00967177 1 
8812 1 31.6358 12.7817 -8.38652 0.00185711 1 
8813 1 32.8722 15.2253 -7.50046 0.00250939 1 
8814 1 32.8692 12.9137 -5.83833 0.0107199 1 
8815 1 34.1285 15.3532 -4.94531 0.0176334 1 
8816 1 35.3262 13.8116 -6.99106 0.0041181 1 
8817 1 36.5659 16.2524 -6.08815 0.0053077 1 
8818 1 36.5571 13.945 -4.39808 0.0121002 1 
8819 1 37.8118 16.3558 -3.48948 0.0396216 1 
8820 1 38.988 14.832 -5.57711 0.0175327 1 
8830 1 9.66844 4.32263 -14.9503 3.23969e-05 1 
8833 1 12.1108 2.91591 -14.4433 4.35348e-05 1 
8834 1 13.3301 5.34756 -13.5635 8.66558e-05 1 
8836 1 15.7716 6.24256 -14.7649 5.15602e-05 1 
8837 1 15.774 3.94004 -13.0551 0.000121898 1 
8838 1 16.9917 6.3715 -12.1788 0.000231833 1 
8839 1 18.2153 4.83426 -14.2569 7.32391e-05 1 
8840 1 19.434 7.26734 -13.3788 0.000120088 1 
8841 1 19.4376 4.96344 -11.6665 0.000321178 1 
8842 1 20.6541 7.39597 -10.7928 0.000542469 1 
8843 1 21.8772 5.85804 -12.8702 0.000111179 1 
8844 1 23.0939 8.29209 -11.9948 0.000155012 1 
8845 1 23.0968 5.98579 -10.2805 0.000378541 1 
8846 1 24.3079 8.42059 -9.41189 0.00077315 1 
8847 1 25.5353 6.87986 -11.4889 0.000294198 1 
8848 1 26.749 9.31558 -10.6192 0.000411993 1 
8849 1 26.7466 7.00452 -8.90734 0.00162507 1 