ITEM: TIMESTEP
0
ITEM: NUMBER OF ATOMS
7111
ITEM: BOX BOUNDS xy xz yz pp pp ss
-3.7448815068000002e+01 3.7448815068000002e+01 -3.7448815068000002e+01
0.0000000000000000e+00 1.0626909828399999e+02 0.0000000000000000e+00
-9.8837823823478061e+01 1.0374875829193299e+02 0.0000000000000000e+00
ITEM: ATOMS id type x y z c_csym c_cna 
5661 1 -0.161223 51.9864 -1.04258 4.75815 5 
5662 1 4.05726 52.56 -0.429376 8.99665 5 
5665 1 2.24118 53.1001 -2.44013 0.540398 1 
48457 2 -0.207896 0.885201 0.830126 11.4435 5 
6670 1 -0.0790309 49.2756 -0.278666 7.32677 5 
6671 1 0.553842 48.3869 -2.83989 0.438356 1 
6672 1 2.33652 47.75 -0.890773 10.1721 5 
6673 1 2.30875 50.4922 -1.24079 6.58838 5 
6674 1 4.54971 48.814 -2.10538 7.30543 5 
6675 1 6.18074 50.7916 -0.523809 11.0045 5 
6676 1 8.36555 49.0323 -1.11623 7.74553 5 
6677 1 12.4034 49.2795 -0.277995 7.32751 5 
6678 1 0.623981 51.1018 -3.65497 0.143639 1 
6679 1 1.27882 50.176 -6.32056 0.00845968 1 
6680 1 2.848 49.4626 -4.08934 0.321853 1 
6681 1 2.91643 52.163 -5.05187 0.0296347 1 
6682 1 4.55906 51.4505 -2.89879 0.227568 1 
6683 1 5.204 50.4679 -5.45804 0.0273857 1 
6684 1 6.84517 49.7638 -3.28293 0.194392 1 
6685 1 6.88608 52.4515 -4.24388 0.11694 1 
6686 1 8.4896 51.6616 -1.95822 2.51402 5 
6687 1 9.15561 50.7785 -4.60109 0.0161611 1 
6688 1 10.7258 50.0348 -2.33338 0.481817 5 
6689 1 10.8199 52.7276 -3.37744 0.259019 1 
6690 1 12.3188 51.9901 -1.04113 4.75034 5 
6691 1 13.1054 51.1039 -3.65323 0.143656 1 
6692 1 14.7902 50.495 -1.23975 6.59246 5 
6693 1 14.7229 53.1022 -2.43881 0.542688 1 
6694 1 16.5407 52.561 -0.429006 8.99897 5 
6695 1 17.0411 51.4515 -2.8982 0.228287 1 
6696 1 18.6637 50.7922 -0.523484 11.0065 5 
48456 2 32.5905 0.671802 0.160074 11.3713 5 
6698 1 -16.4767 51.6617 -1.95866 2.51509 5 
6700 1 -12.6456 51.9884 -1.04156 4.75129 5 
6701 1 -8.42543 52.5584 -0.428909 9.00108 5 
6702 1 1.3037 52.8913 -7.25379 0.00366741 1 
6703 1 1.96198 51.9518 -9.87941 0.000474401 1 
6704 1 3.59073 51.2176 -7.66466 0.00238157 1 
6707 1 5.89444 52.2631 -9.00841 0.0014032 1 
6708 1 7.52498 51.5188 -6.81562 0.00893447 1 
6711 1 9.84554 52.5695 -8.14752 0.00361039 1 
6712 1 11.4897 51.8332 -5.92813 0.0193329 1 
6715 1 13.7854 52.8933 -7.25172 0.00366696 1 
6716 1 15.3979 52.1646 -5.05037 0.0299161 1 
6720 1 -18.0809 52.4516 -4.24361 0.11762 1 
6724 1 -14.1459 52.7258 -3.37877 0.261775 1 
6728 1 -10.2428 53.1 -2.4394 0.536008 1 
48455 2 29.8129 1.10791 1.20589 8.82153 5 
6738 1 0.324542 52.6822 -12.1012 0.000116633 1 
6742 1 4.26367 52.9946 -11.2238 0.000321541 1 
7677 1 0.799905 43.2567 0.288965 9.61207 5 
7678 1 5.59285 43.6004 1.00406 7.11709 5 
7679 1 0.651796 45.7024 -1.78157 6.13681 5 
7680 1 1.30951 44.7666 -4.40813 0.107164 1 
7681 1 2.83987 44.0456 -2.06741 7.5223 5 
7682 1 2.94282 46.7013 -3.25976 0.729568 1 
7683 1 4.37933 45.8091 -0.606942 10.6826 5 
7684 1 5.19793 45.0801 -3.41261 0.244332 1 
7685 1 6.86013 44.4882 -1.25346 6.77433 5 
7686 1 6.74337 47.0635 -2.0368 4.88423 5 
7687 1 8.85904 46.0626 0.241252 8.73894 5 
7688 1 9.12544 45.3929 -2.62802 0.552912 1 
7689 1 10.9612 44.4924 -0.667419 11.4132 5 
7690 1 10.7897 47.2972 -1.37908 2.89799 5 
7691 1 13.1348 45.7033 -1.78095 6.1392 5 
7692 1 14.8188 47.7518 -0.890392 10.1741 5 
7693 1 16.8617 45.8098 -0.606358 10.6815 5 
7694 1 -16.1068 46.0627 0.241397 8.7318 5 
7695 1 1.27067 47.4566 -5.40902 0.0356287 1 
7696 1 1.95307 46.5258 -7.99044 0.00508974 1 
7697 1 3.6032 45.7825 -5.77356 0.0601585 1 
7698 1 3.58156 48.5047 -6.70957 0.0136627 1 
7699 1 5.24739 47.7392 -4.51069 0.27858 1 
7700 1 5.89287 46.8337 -7.10648 0.0124883 1 
7701 1 7.49654 46.1049 -4.81755 0.0702669 1 
7702 1 7.52254 48.8038 -5.85658 0.0139541 1 
7703 1 9.12429 48.0422 -3.62827 0.151932 1 
7704 1 9.81233 47.148 -6.24833 0.0124633 1 
7705 1 11.4446 46.4309 -4.04987 0.0513 1 
7706 1 11.4316 49.137 -4.9778 0.0328559 1 
7707 1 13.036 48.3884 -2.83889 0.439316 1 
7708 1 13.7531 47.4576 -5.40816 0.0357452 1 
7709 1 15.4253 46.7023 -3.25903 0.730078 1 
7710 1 15.3297 49.4639 -4.0882 0.323178 1 
7711 1 17.0319 48.8153 -2.10475 7.30194 5 
7712 1 17.7296 47.7398 -4.5101 0.279022 1 
7713 1 19.2256 47.064 -2.03648 4.88797 5 
7714 1 19.3274 49.7641 -3.28273 0.194546 1 
7715 1 -16.6007 49.0326 -1.11626 7.74827 5 
7716 1 -15.8422 48.0421 -3.62833 0.151901 1 
7717 1 -14.1768 47.2968 -1.37949 2.89893 5 
7718 1 -14.2402 50.0342 -2.3333 0.482927 5 
7719 1 -12.5623 49.2773 -0.27828 7.32589 5 
7720 1 -11.9298 48.3874 -2.83932 0.437846 1 
7721 1 -10.1469 47.7504 -0.890555 10.1725 5 
7722 1 -10.1751 50.4925 -1.2406 6.58805 5 
7723 1 -7.93359 48.8133 -2.10541 7.30624 5 
7724 1 -6.30167 50.7905 -0.524575 11.0113 5 
7725 1 -4.11728 49.0314 -1.11709 7.74838 5 
7726 1 0.313893 47.2641 -10.2067 0.000559376 1 
7727 1 0.318896 49.9743 -11.1574 0.000176959 1 
7728 1 1.9531 49.2396 -8.93607 0.000480079 1 
7729 1 2.61733 48.3098 -11.5535 0.000147025 1 
7730 1 4.25396 47.574 -9.3297 0.000654893 1 
7731 1 4.25619 50.2848 -10.2833 0.000353587 1 
7732 1 5.88623 49.5465 -8.06775 0.00139097 1 
7733 1 6.55507 48.6194 -10.6828 0.000331355 1 
7734 1 8.18917 47.8832 -8.46458 0.00151013 1 
7735 1 8.19498 50.594 -9.41759 0.000914709 1 
7736 1 9.82908 49.8605 -7.20379 0.00266354 1 
7737 1 10.4959 48.9301 -9.81295 0.000391327 1 
7738 1 12.1238 48.1962 -7.59551 0.00269042 1 
7739 1 12.1408 50.9081 -8.54034 0.00107573 1 
7740 1 13.7608 50.1775 -6.31916 0.00843013 1 
7741 1 14.4353 49.2405 -8.93501 0.00048857 1 
7742 1 16.0636 48.5055 -6.70869 0.0138009 1 
7743 1 16.0724 51.2186 -7.66347 0.0023989 1 
7744 1 17.6857 50.4685 -5.45733 0.02758 1 
7745 1 18.368 49.5467 -8.06724 0.0014083 1 
7746 1 20.0045 48.8038 -5.85641 0.0139834 1 
7747 1 -17.4423 51.5186 -6.81542 0.00906255 1 
7748 1 -15.8111 50.7779 -4.60131 0.0163085 1 
7749 1 -15.1378 49.8597 -7.20404 0.00264997 1 
7750 1 -13.5348 49.1361 -4.97803 0.0328886 1 
7751 1 -13.477 51.8317 -5.92906 0.0194315 1 
7752 1 -11.8604 51.1022 -3.65405 0.143115 1 
7753 1 -11.2054 50.1761 -6.32 0.00842102 1 
7754 1 -9.63586 49.4624 -4.089 0.322036 1 
7755 1 -9.56801 52.1624 -5.05151 0.0294061 1 
7756 1 -7.9247 51.4494 -2.89896 0.22728 1 
7757 1 -7.27989 50.4668 -5.45847 0.0273771 1 
7758 1 -5.63815 49.7625 -3.28358 0.19388 1 
7759 1 -5.59756 52.4492 -4.24489 0.116684 1 
7760 1 -3.99313 51.6603 -1.95967 2.51345 5 
7761 1 -3.32749 50.7763 -4.60248 0.0164556 1 
7762 1 -1.75649 50.0331 -2.33419 0.484201 5 
7763 1 -1.66137 52.7237 -3.38106 0.265185 1 
7764 1 0.978958 49.0449 -13.7768 6.97901e-05 1 
7765 1 0.981894 51.7512 -14.7257 3.83186e-05 1 
7766 1 2.62098 51.0188 -12.5027 0.00011134 1 
7768 1 4.91873 49.3548 -12.9031 0.000115564 1 
7769 1 4.9226 52.062 -13.8503 6.71089e-05 1 
7770 1 6.55963 51.3294 -11.6303 0.000214472 1 
7771 1 7.22084 50.3989 -14.2519 6.65639e-05 1 
7772 1 8.85935 49.6647 -12.0316 0.000194661 1 
7773 1 8.86422 52.3723 -12.9766 0.000100349 1 
7774 1 10.5037 51.6399 -10.7585 0.000378187 1 
7775 1 11.163 50.7089 -13.3776 8.96633e-05 1 
7776 1 12.8014 49.9753 -11.1562 0.00017939 1 
7777 1 12.807 52.6835 -12.0995 0.000120311 1 
7778 1 14.4439 51.953 -9.87788 0.000478767 1 
7779 1 15.1031 51.0195 -12.5017 0.000114537 1 
7780 1 16.738 50.2852 -10.2824 0.000359758 1 
7781 1 16.7451 52.9952 -11.2225 0.000327522 1 
7782 1 18.3757 52.2633 -9.00763 0.00143217 1 
7783 1 19.0412 51.3293 -11.6299 0.000219036 1 
7784 1 -16.7722 50.5936 -9.41753 0.000922237 1 
137 1 26.9307 0.170863 -10.3597 0.000516867 1 
7786 1 -15.1218 52.5685 -8.14797 0.00360914 1 
7787 1 -14.4635 51.6389 -10.759 0.000369586 1 
7788 1 -12.826 50.9068 -8.54114 0.00105939 1 
7790 1 -11.1811 52.8911 -7.25316 0.00361078 1 
7791 1 -10.5226 51.9513 -9.87923 0.00046061 1 
7792 1 -8.89367 51.2168 -7.66475 0.00233807 1 
7795 1 -6.58981 52.2614 -9.00935 0.00141325 1 
7796 1 -4.95867 51.5169 -6.81684 0.0089867 1 
7799 1 -2.63762 52.5672 -8.14941 0.00358625 1 
7800 1 -0.992556 51.8308 -5.93042 0.0197462 1 
7815 1 13.4644 51.752 -14.7245 4.05279e-05 1 
7819 1 17.4043 52.0622 -13.8495 6.86996e-05 1 
7823 1 -16.1031 52.3717 -12.9767 9.81007e-05 1 
7827 1 -12.16 52.6821 -12.1007 0.000115168 1 
7831 1 -8.22093 52.9933 -11.2244 0.000318728 1 
130 1 14.448 0.170668 -10.3595 0.000516488 1 
26 1 1.96507 0.170991 -10.3599 0.000513899 1 
47532 2 21.062 17.7211 2.37908 3.35148 5 
8686 1 1.26383 39.4284 -2.33747 2.47995 5 
8687 1 3.10261 38.9525 -0.218645 9.39198 5 
8688 1 2.69838 41.5195 -1.081 7.58298 5 
8689 1 5.32286 39.7531 -1.63359 5.27417 5 
8690 1 7.55741 40.4988 -0.0999761 6.63262 5 
8691 1 10.0323 39.6649 -0.909307 10.7306 5 
8692 1 1.36295 42.1111 -3.52217 6.73563 5 
8693 1 1.98868 41.1271 -6.03864 0.0374443 1 
8694 1 3.61429 40.4411 -3.73736 0.275459 1 
8695 1 3.66009 43.1119 -4.7099 0.212668 1 
8696 1 5.20315 42.4423 -2.18468 7.18506 5 
8697 1 5.89564 41.4564 -5.07481 0.136327 1 
8698 1 7.58305 40.7066 -2.9329 2.56025 5 
8699 1 7.49167 43.3981 -3.83443 0.24677 1 
8700 1 9.25984 42.5246 -1.83201 5.67622 5 
8701 1 9.86933 41.7351 -4.37128 0.375552 1 
8702 1 11.7615 41.393 -1.99779 11.9171 5 
8703 1 11.489 43.7754 -3.20882 6.31603 5 
8704 1 13.2829 43.2572 0.28955 9.61399 5 
8705 1 13.8459 42.1116 -3.52193 6.7352 5 
8706 1 15.1811 41.5199 -1.08071 7.58518 5 
8707 1 15.3227 44.046 -2.06702 7.5203 5 
8708 1 18.0759 43.6007 1.00426 7.11656 5 
8709 1 17.6859 42.4426 -2.1844 7.18443 5 
8710 1 20.0405 40.4988 -0.0998756 6.63266 5 
8711 1 19.3428 44.4886 -1.25324 6.77471 5 
8712 1 21.7427 42.5246 -1.83194 5.677 5 
8713 1 -14.0048 44.4924 -0.667424 11.4128 5 
8714 1 -11.683 43.257 0.289304 9.61019 5 
8715 1 -6.89025 43.6008 1.00404 7.11627 5 
8716 1 0.329331 41.8514 -8.28415 0.00733326 1 
8717 1 0.31871 44.5549 -9.24286 0.00146168 1 
8718 1 1.97762 43.8185 -7.00272 0.018566 1 
8719 1 2.62629 42.8973 -9.62554 0.000960227 1 
8720 1 4.27473 42.1712 -7.37234 0.00735542 1 
8721 1 4.26395 44.8636 -8.3639 0.00457079 1 
8722 1 5.90063 44.1394 -6.08751 0.0225743 1 
8723 1 6.55716 43.2094 -8.74112 0.00200176 1 
8724 1 8.1835 42.476 -6.5152 0.0220805 1 
8725 1 8.17964 45.1807 -7.48136 0.00788018 1 
8726 1 9.78757 44.4511 -5.28036 0.0652941 1 
8727 1 10.4865 43.5153 -7.89609 0.00701796 1 
8728 1 12.1493 42.7804 -5.71837 0.0708265 1 
8729 1 12.1264 45.4799 -6.63789 0.00839224 1 
8730 1 13.7924 44.7673 -4.40756 0.107293 1 
8731 1 14.4604 43.819 -7.00223 0.0185972 1 
8732 1 16.1429 43.1123 -4.70956 0.212869 1 
8733 1 16.0857 45.7831 -5.77295 0.060064 1 
8734 1 17.6804 45.0806 -3.41221 0.244337 1 
8735 1 18.3831 44.1396 -6.0872 0.0225549 1 
8736 1 19.9742 43.3982 -3.8342 0.246872 1 
8737 1 19.9788 46.1051 -4.81737 0.0702771 1 
8738 1 -15.8409 45.3929 -2.62801 0.553441 1 
8739 1 -15.1788 44.4509 -5.28039 0.0653223 1 
8740 1 -13.4772 43.7752 -3.20892 6.31448 5 
8741 1 -13.5217 46.4305 -4.05016 0.0511823 1 
8742 1 -11.8313 45.7028 -1.78132 6.13928 5 
8743 1 -11.1738 44.7668 -4.4079 0.107304 1 
8744 1 -9.64317 44.0458 -2.06716 7.52071 5 
8745 1 -9.54063 46.7014 -3.25965 0.728385 1 
8746 1 -8.10328 45.81 -0.607629 10.6885 5 
8747 1 -7.28534 45.0798 -3.41294 0.243104 1 
8748 1 -5.62303 44.4876 -1.25386 6.77258 5 
8749 1 -5.73959 47.0628 -2.03747 4.87707 5 
8750 1 -3.62434 46.0625 0.240758 8.74004 5 
8751 1 -3.3577 45.3921 -2.62854 0.552173 1 
8752 1 -1.52189 44.4922 -0.667631 11.4143 5 
8753 1 -1.69374 47.2961 -1.38002 2.89827 5 
8754 1 0.979234 43.6318 -11.86 0.000155155 1 
8755 1 0.97747 46.3374 -12.8223 0.00014224 1 
8756 1 2.61897 45.6007 -10.5964 0.000592 1 
8757 1 3.27876 44.6763 -13.2148 0.000118393 1 
8758 1 4.92052 43.9406 -10.9833 0.000393797 1 
8759 1 4.91762 46.6467 -11.9482 0.000159916 1 
8760 1 6.5556 45.9106 -9.72157 0.00102383 1 
8761 1 7.21783 44.9851 -12.3414 0.00018074 1 
8762 1 8.85298 44.2504 -10.1116 0.000813405 1 
8763 1 8.85613 46.956 -11.0779 0.000299609 1 
8764 1 10.4903 46.2192 -8.85622 0.00115956 1 
8765 1 11.1582 45.2928 -11.4694 0.000225552 1 
8766 1 12.8015 44.5554 -9.24233 0.00146635 1 
8767 1 12.7966 47.2648 -10.206 0.000569125 1 
8768 1 14.4356 46.5264 -7.98973 0.0051023 1 
8769 1 15.1015 45.6011 -10.5959 0.000592812 1 
8770 1 16.7464 44.8639 -8.36346 0.00456251 1 
8771 1 16.7361 47.5744 -9.3291 0.000667414 1 
8772 1 18.375 46.834 -7.1061 0.0125155 1 
8773 1 19.0379 45.9105 -9.72131 0.00102423 1 
8774 1 20.662 45.1806 -7.48124 0.00788444 1 
8775 1 -16.7776 47.8829 -8.46451 0.00150915 1 
8776 1 -15.1542 47.1477 -6.24843 0.0124262 1 
8777 1 -14.4762 46.2188 -8.85636 0.00115204 1 
8778 1 -12.84 45.4794 -6.63815 0.00838492 1 
8779 1 -12.8427 48.1954 -7.59591 0.00266312 1 
8780 1 -11.2131 47.4568 -5.40866 0.0355954 1 
8781 1 -10.5306 46.5257 -7.99024 0.00507069 1 
8782 1 -8.88035 45.7823 -5.77356 0.0600567 1 
8783 1 -8.90237 48.5043 -6.70957 0.0137174 1 
8784 1 -7.2361 47.7387 -4.51104 0.278481 1 
8785 1 -6.5907 46.8331 -7.10686 0.012503 1 
8786 1 -4.98673 46.1042 -4.81809 0.0701472 1 
8787 1 -4.96089 48.8026 -5.85737 0.0139316 1 
8788 1 -3.35869 48.0412 -3.62918 0.151587 1 
8789 1 -2.67069 47.147 -6.2491 0.0124278 1 
8790 1 -1.03823 46.4299 -4.05065 0.0510848 1 
8791 1 -1.05097 49.1355 -4.97879 0.032954 1 
8795 1 3.27829 47.3824 -14.1735 6.73613e-05 1 
8797 1 5.57822 45.7208 -14.569 6.99486e-05 1 
8799 1 7.21839 47.6917 -13.3008 0.000118358 1 
8801 1 9.51887 46.0293 -13.6957 9.9272e-05 1 
8802 1 9.52033 48.736 -14.6509 7.11823e-05 1 
8803 1 11.1595 48.0009 -12.4279 0.000156955 1 
8805 1 13.4602 46.3378 -12.8218 0.000144495 1 
8806 1 13.4615 49.0454 -13.776 7.21142e-05 1 
8807 1 15.0997 48.3103 -11.5528 0.000150976 1 
8808 1 15.7607 47.3826 -14.1731 6.85281e-05 1 
8809 1 17.3999 46.6468 -11.9478 0.000162202 1 
8810 1 17.4008 49.355 -12.9026 0.00011769 1 
8811 1 19.037 48.6194 -10.6825 0.00033429 1 
8812 1 19.7005 47.6915 -13.3007 0.000118449 1 
8813 1 -16.1105 46.9556 -11.0779 0.000298455 1 
8814 1 -16.1076 49.6643 -12.0317 0.000192861 1 
8815 1 -14.4708 48.9294 -9.81325 0.000381836 1 
8816 1 -13.8071 48.0003 -12.4282 0.0001534 1 
8817 1 -12.1698 47.2641 -10.2064 0.0005584 1 
8818 1 -12.1652 49.9743 -11.157 0.000171243 1 
8819 1 -10.531 49.2393 -8.93584 0.000476491 1 
8820 1 -9.86654 48.3094 -11.5536 0.000145309 1 
8821 1 -8.22985 47.5735 -9.32987 0.00065621 1 
8822 1 -8.22797 50.284 -10.2836 0.000346613 1 
8823 1 -6.59764 49.5454 -8.06834 0.00139594 1 
8824 1 -5.92861 48.6185 -10.6834 0.000331039 1 
8825 1 -4.29422 47.8821 -8.46531 0.00150303 1 
8826 1 -4.28856 50.5925 -9.41873 0.000921038 1 
8827 1 -2.65395 49.8588 -7.20505 0.00267557 1 
8828 1 -1.98706 48.929 -9.81396 0.000388093 1 
8829 1 -0.358842 48.1951 -7.59646 0.00266891 1 
8830 1 -0.341667 50.9065 -8.54192 0.00109046 1 
8851 1 -17.7461 50.3987 -14.2518 6.66475e-05 1 
8853 1 -15.4464 48.7356 -14.651 6.9745e-05 1 
8855 1 -13.8039 50.7081 -13.3781 8.52404e-05 1 
8857 1 -11.5049 49.0447 -13.7767 6.82698e-05 1 
8858 1 -11.5023 51.751 -14.7255 3.73589e-05 1 
8859 1 -9.86326 51.0183 -12.5028 0.000107398 1 
8861 1 -7.5651 49.3542 -12.9035 0.000113539 1 
8862 1 -7.56154 52.061 -13.851 6.47118e-05 1 
8863 1 -5.92432 51.3282 -11.6313 0.000214062 1 
8864 1 -5.26277 50.398 -14.2528 6.45274e-05 1 
8865 1 -3.62401 49.6637 -12.0326 0.000193325 1 
8866 1 -3.61929 52.3709 -12.978 9.76156e-05 1 
8867 1 -1.97936 51.6383 -10.76 0.000373409 1 
8868 1 -1.31999 50.7079 -13.3787 8.62895e-05 1 
47523 2 12.0898 12.6008 2.41607 11.2685 5 
47500 2 -7.42675 23.0694 2.36342 5.18376 5 
46986 2 8.57905 17.721 2.37904 3.35228 5 
46966 2 17.5391 23.0695 2.36348 5.18301 5 
9697 1 1.53276 34.105 -0.759462 10.7238 5 
9698 1 1.42845 36.7938 -1.24743 7.64368 5 
9699 1 1.95975 35.7449 -3.98673 0.29176 1 
9700 1 3.77384 35.0537 -1.99865 6.63915 5 
9701 1 3.60359 37.7787 -2.81843 0.185155 1 
9702 1 5.22908 37.1641 -0.55285 10.8805 5 
9703 1 5.92771 36.1171 -3.27344 0.290656 1 
9704 1 7.32965 35.4101 -1.07391 11.4202 5 
9705 1 7.64134 38.1312 -1.81922 5.38364 5 
9706 1 9.93385 36.561 -1.88824 7.91932 5 
9707 1 11.5031 35.0007 0.0240775 7.36508 5 
9708 1 11.7255 37.7346 0.179974 7.47385 5 
9709 1 13.9116 36.7939 -1.24727 7.64378 5 
9710 1 15.5856 38.9528 -0.218548 9.39174 5 
9711 1 17.712 37.1642 -0.552713 10.8806 5 
9712 1 0.339664 36.4766 -6.25995 0.0317014 1 
9713 1 0.337191 39.1582 -7.27977 0.00585713 1 
9714 1 1.97607 38.4525 -5.01654 0.0221904 1 
9715 1 2.6261 37.5079 -7.66362 0.00314003 1 
9716 1 4.25451 36.78 -5.43434 0.0367954 1 
9717 1 4.27455 39.4778 -6.39304 0.0117216 1 
9718 1 5.93884 38.7539 -4.18713 0.0766136 1 
9719 1 6.57575 37.805 -6.7944 0.0112313 1 
9720 1 8.24004 37.0919 -4.51755 0.298023 1 
9721 1 8.20243 39.7742 -5.57062 0.044204 1 
9722 1 9.90483 39.0544 -3.45368 6.30193 5 
9723 1 10.5361 38.0982 -5.94802 0.0899554 1 
9724 1 12.1793 37.4191 -3.56653 1.80075 5 
9725 1 12.1857 40.096 -4.63902 0.286119 1 
9726 1 13.7466 39.4287 -2.33712 2.47972 5 
9727 1 14.459 38.4527 -5.01629 0.0222161 1 
9728 1 16.0865 37.7789 -2.81825 0.185266 1 
9729 1 16.0971 40.4413 -3.73703 0.275711 1 
9730 1 17.8058 39.7532 -1.63344 5.27467 5 
9731 1 18.4217 38.754 -4.18699 0.076645 1 
9732 1 20.1242 38.1312 -1.81915 5.3836 5 
9733 1 20.0659 40.7067 -2.93279 2.56112 5 
9734 1 22.5153 39.6649 -0.909298 10.7317 5 
9735 1 22.3876 39.0543 -3.45362 6.30307 5 
9736 1 -13.24 37.7347 0.179663 7.46801 5 
9737 1 -13.2044 41.393 -1.9976 11.9157 5 
9738 1 -11.2194 39.4285 -2.33689 2.47851 5 
9739 1 -9.38019 38.9527 -0.218414 9.39189 5 
9740 1 -9.78469 41.5197 -1.08078 7.58325 5 
9741 1 -7.1601 39.7531 -1.63351 5.27291 5 
9742 1 -4.92547 40.4984 -0.0999736 6.63599 5 
9743 1 -2.45068 39.6643 -0.90936 10.7304 5 
9744 1 0.986321 38.2341 -9.91409 0.000532909 1 
9745 1 0.983952 40.9296 -10.893 0.000676465 1 
9746 1 2.63204 40.1984 -8.6491 0.00173038 1 
9747 1 3.28364 39.2745 -11.2775 0.000235905 1 
9748 1 4.92666 38.5437 -9.03197 0.00129771 1 
9749 1 4.9242 41.2405 -10.008 0.000600966 1 
9750 1 6.5558 40.5143 -7.75627 0.0118661 1 
9751 1 7.21989 39.5833 -10.3992 0.000877476 1 
9752 1 8.86616 38.845 -8.17335 0.00394927 1 
9753 1 8.85651 41.5456 -9.14171 0.00197272 1 
9754 1 10.515 40.8012 -6.92661 0.0184963 1 
9755 1 11.1676 39.886 -9.53423 0.00157439 1 
9756 1 12.8201 39.1585 -7.27948 0.00587569 1 
9757 1 12.8122 41.8518 -8.2838 0.00735009 1 
9758 1 14.4715 41.1274 -6.03833 0.0374909 1 
9759 1 15.1149 40.1985 -8.64883 0.00173597 1 
9760 1 16.7574 39.478 -6.39279 0.0117343 1 
9761 1 16.7574 42.1714 -7.37205 0.00735923 1 
9762 1 18.3784 41.4565 -5.0746 0.136331 1 
9763 1 19.0385 40.5143 -7.75611 0.0118716 1 
9764 1 20.6852 39.7742 -5.57054 0.044251 1 
9765 1 20.6661 42.4759 -6.51507 0.0220789 1 
9766 1 22.352 41.7349 -4.37122 0.376063 1 
9767 1 22.9977 40.801 -6.92656 0.0185655 1 
9768 1 -12.7803 40.0957 -4.63885 0.286746 1 
9769 1 -12.8169 42.78 -5.71845 0.0708776 1 
9770 1 -11.1201 42.1113 -3.52196 6.73372 5 
9771 1 -10.4946 41.127 -6.03842 0.0374665 1 
9772 1 -8.86894 40.441 -3.73721 0.275237 1 
9773 1 -8.82324 43.1118 -4.70994 0.212225 1 
9774 1 -7.28011 42.4421 -2.1853 7.17965 5 
9775 1 -6.58759 41.4561 -5.07496 0.136027 1 
9776 1 -4.90004 40.7063 -2.93305 2.56063 5 
9777 1 -4.99139 43.3976 -3.83476 0.246253 1 
9778 1 -3.22311 42.5241 -1.83212 5.67404 5 
9779 1 -2.61374 41.7347 -4.37157 0.374925 1 
9780 1 -0.721602 41.3922 -1.99826 11.9183 5 
9781 1 -0.993989 43.7747 -3.20904 6.31584 5 
9783 1 1.63966 40.0078 -13.5173 0.000109376 1 
9784 1 1.63805 42.7085 -14.4823 6.09013e-05 1 
9785 1 3.28136 41.9733 -12.2487 0.000156209 1 
9786 1 3.93835 41.0503 -14.8753 4.92204e-05 1 
9787 1 5.5803 40.3161 -12.639 9.05569e-05 1 
9788 1 5.57897 43.0166 -13.6068 8.86347e-05 1 
9789 1 7.21861 42.282 -11.3724 0.000218642 1 
9790 1 7.87866 41.358 -13.9995 5.74571e-05 1 
9791 1 9.51993 40.6224 -11.7663 0.000234878 1 
9792 1 9.51826 43.3245 -12.7335 0.000125574 1 
9793 1 11.1594 42.5883 -10.5061 0.00074818 1 
9794 1 11.8208 41.6652 -13.1259 0.000125995 1 
9795 1 13.4668 40.9298 -10.8927 0.000677507 1 
9796 1 13.462 43.6321 -11.8596 0.000155234 1 
9797 1 15.109 42.8976 -9.62517 0.000961733 1 
9798 1 15.7641 41.9734 -12.2485 0.000156693 1 
9799 1 17.4069 41.2405 -10.0077 0.000602366 1 
9800 1 17.403 43.9407 -10.983 0.000392571 1 
9801 1 19.0397 43.2094 -8.7409 0.00199959 1 
9802 1 19.7012 42.2819 -11.3722 0.000219518 1 
9803 1 21.3392 41.5454 -9.14163 0.00197471 1 
9804 1 21.3354 44.2502 -10.1115 0.000814471 1 
9805 1 -14.4798 43.515 -7.89613 0.00701374 1 
9806 1 -13.8068 42.5881 -10.5062 0.000746734 1 
9807 1 -12.1539 41.8514 -8.28393 0.00735167 1 
9808 1 -12.1647 44.5549 -9.24261 0.00146082 1 
9809 1 -10.5058 43.8184 -7.00258 0.018566 1 
9810 1 -9.85706 42.8972 -9.62549 0.000962151 1 
9811 1 -8.2086 42.171 -7.37235 0.00733822 1 
9812 1 -8.21957 44.8632 -8.36397 0.00455774 1 
9813 1 -6.58273 44.139 -6.08777 0.0224881 1 
9814 1 -5.92616 43.209 -8.74134 0.00199219 1 
9815 1 -4.29967 42.4756 -6.51548 0.0220462 1 
9816 1 -4.30361 45.18 -7.48181 0.00787028 1 
9817 1 -2.6954 44.4505 -5.28082 0.0650901 1 
9818 1 -1.99652 43.5147 -7.8965 0.00700313 1 
9819 1 -0.333622 42.7799 -5.71873 0.0706315 1 
9820 1 -0.356453 45.4791 -6.63859 0.00836029 1 
9829 1 7.87833 44.0603 -14.9635 6.29661e-05 1 
9833 1 11.8197 44.3682 -14.0892 7.17247e-05 1 
9835 1 14.1208 42.7086 -14.4821 6.09985e-05 1 
9837 1 15.7614 44.6764 -13.2145 0.000118811 1 
9839 1 18.0616 43.0166 -13.6067 8.92268e-05 1 
9840 1 18.0607 45.7208 -14.5689 7.05924e-05 1 
9841 1 19.7002 44.985 -12.3413 0.000181147 1 
9842 1 20.3609 44.0602 -14.9634 6.29054e-05 1 
9843 1 22.0008 43.3243 -12.7336 0.000125362 1 
9844 1 -15.4476 46.029 -13.6958 9.91065e-05 1 
9845 1 -13.8082 45.2924 -11.4696 0.000223381 1 
9846 1 -13.1465 44.3679 -14.0894 7.115e-05 1 
9847 1 -11.5041 43.6318 -11.8599 0.000153713 1 
9848 1 -11.5061 46.3373 -12.8222 0.000141249 1 
9849 1 -9.86461 45.6005 -10.5964 0.000586616 1 
9850 1 -9.20465 44.6761 -13.2149 0.000116409 1 
9851 1 -7.56286 43.9403 -10.9835 0.000391711 1 
9852 1 -7.56596 46.6463 -11.9485 0.000158205 1 
9853 1 -5.92788 45.91 -9.72191 0.00101955 1 
9854 1 -5.26547 44.9847 -12.3417 0.000179161 1 
9855 1 -3.6302 44.2499 -10.112 0.0008134 1 
9856 1 -3.62712 46.9552 -11.0785 0.00029702 1 
9857 1 -1.99271 46.2185 -8.85687 0.00115643 1 
9858 1 -1.32476 45.2923 -11.4699 0.000224006 1 
9887 1 -9.20533 47.3821 -14.1737 6.6424e-05 1 
9889 1 -6.90513 45.7205 -14.5693 6.85537e-05 1 
9891 1 -5.26504 47.6911 -13.3013 0.00011666 1 
9893 1 -2.96424 46.0289 -13.6962 9.83863e-05 1 
9894 1 -2.96285 48.7353 -14.6516 6.91457e-05 1 
9895 1 -1.32346 48.0002 -12.4286 0.000154538 1 
48344 2 -0.393063 12.6006 2.41612 11.2691 5 
45415 2 5.05629 23.0694 2.36332 5.18374 5 
45405 2 -5.28809 41.6315 2.44228 0.310718 1 
48202 2 -3.90386 17.721 2.37899 3.35148 5 
10705 1 1.99141 30.3778 -2.31552 5.74669 5 
10706 1 2.15437 29.9925 0.28297 11.6328 5 
10707 1 3.68287 32.3321 -0.707871 11.5918 5 
10708 1 5.92109 30.6419 -1.28564 4.62122 5 
10709 1 7.68026 32.705 0.407514 11.5827 5 
10710 1 9.86041 31.0097 -0.490779 5.37581 5 
10711 1 0.298065 31.0946 -4.39099 0.173057 1 
10712 1 0.322127 33.7854 -5.33835 0.0161577 1 
10713 1 1.99281 33.0236 -3.18323 0.399563 1 
10714 1 2.62918 32.1075 -5.76879 0.0121979 1 
10715 1 4.29918 31.3815 -3.49941 0.0902201 1 
10716 1 4.30866 34.0605 -4.50317 0.119297 1 
10717 1 5.97302 33.3134 -2.15855 6.35431 5 
10718 1 6.58429 32.4424 -4.86025 0.0333054 1 
10719 1 8.19473 31.682 -2.64388 0.275689 1 
10720 1 8.23994 34.4403 -3.58333 0.388015 1 
10721 1 9.65656 33.6822 -1.33122 4.40246 5 
10722 1 10.5266 32.749 -3.94552 0.142425 1 
10723 1 12.2034 32.0912 -1.50971 7.42452 5 
10724 1 12.1006 34.7439 -2.6958 1.08607 5 
10725 1 14.0158 34.1051 -0.75934 10.7234 5 
10726 1 14.4758 33.0236 -3.18307 0.399545 1 
10727 1 16.1658 32.3321 -0.70778 11.5923 5 
10728 1 16.2569 35.0537 -1.99852 6.63978 5 
10729 1 18.456 33.3134 -2.15846 6.35428 5 
10730 1 20.1631 32.7049 0.407572 11.5822 5 
10731 1 19.8125 35.4101 -1.07384 11.4185 5 
10732 1 22.1394 33.6822 -1.33116 4.40184 5 
10733 1 23.9861 35.0007 0.0241464 7.36722 5 
10734 1 -10.9501 34.105 -0.759342 10.7237 5 
10735 1 0.979789 32.8535 -7.98632 0.000970603 1 
10736 1 0.982887 35.5452 -8.93173 0.00370583 1 
10737 1 2.62111 34.818 -6.68503 0.018511 1 
10738 1 3.2781 33.8898 -9.34357 0.00156369 1 
10739 1 4.9281 33.1538 -7.12078 0.00587687 1 
10740 1 4.92256 35.8502 -8.06971 0.00159548 1 
10741 1 6.58174 35.1195 -5.84822 0.0210694 1 
10742 1 7.22859 34.1932 -8.47298 0.0011007 1 
10743 1 8.88154 33.4684 -6.21727 0.0132921 1 
10744 1 8.8712 36.1558 -7.19038 0.0126391 1 
10745 1 10.5045 35.464 -4.87999 0.204485 1 
10746 1 11.1673 34.5189 -7.55598 0.0173399 1 
10747 1 12.8052 33.7855 -5.33817 0.0161505 1 
10748 1 12.8227 36.4768 -6.25972 0.0317289 1 
10749 1 14.4427 35.7451 -3.98657 0.291742 1 
10750 1 15.1041 34.8181 -6.68487 0.0184988 1 
10751 1 16.7916 34.0605 -4.50305 0.119362 1 
10752 1 16.7374 36.7801 -5.43417 0.0368002 1 
10753 1 18.4106 36.1171 -3.27337 0.29085 1 
10754 1 19.0647 35.1195 -5.84815 0.0211076 1 
10755 1 20.7228 34.4403 -3.58328 0.388296 1 
10756 1 20.7229 37.0918 -4.5175 0.298277 1 
10757 1 22.4166 36.5611 -1.8879 7.9206 5 
10758 1 22.9873 35.4639 -4.87992 0.204639 1 
10759 1 24.5834 34.7439 -2.69571 1.08659 5 
10760 1 -12.7867 37.419 -3.56622 1.79944 5 
10761 1 -11.054 36.7937 -1.24719 7.6427 5 
10762 1 -10.5232 35.7449 -3.98649 0.292031 1 
10763 1 -8.70899 35.0535 -1.99853 6.6404 5 
10764 1 -8.87939 37.7787 -2.81827 0.185315 1 
10765 1 -7.25391 37.164 -0.552816 10.8801 5 
10766 1 -6.5553 36.1169 -3.27347 0.290789 1 
10767 1 -5.15331 35.41 -1.07394 11.4187 5 
10768 1 -4.84175 38.131 -1.81943 5.38322 5 
10769 1 -2.5491 36.561 -1.88816 7.92347 5 
10770 1 -0.979911 35.0005 0.0240364 7.36408 5 
10771 1 -0.757566 37.7343 0.18022 7.47723 5 
10772 1 -0.00274397 35.3488 -13.8254 0.000106226 1 
10773 1 1.63816 34.6191 -11.583 0.000565259 1 
10774 1 1.64013 37.3115 -12.5492 0.000115773 1 
10775 1 3.28118 36.5809 -10.3062 0.000388821 1 
10776 1 3.93787 35.6568 -12.9462 0.000117755 1 
10777 1 5.57995 34.9252 -10.7088 0.00025013 1 
10778 1 5.58057 37.6194 -11.6709 0.000147747 1 
10779 1 7.22383 36.886 -9.43436 0.000620287 1 
10780 1 7.88104 35.9636 -12.069 0.000154418 1 
10781 1 9.5277 35.2334 -9.82622 0.00161881 1 
10782 1 9.52423 37.9245 -10.7965 0.000465354 1 
10783 1 11.1767 37.1918 -8.55215 0.00569423 1 
10784 1 11.8256 36.2718 -11.1872 0.000465332 1 
10785 1 13.4659 35.5453 -8.93154 0.0037059 1 
10786 1 13.4693 38.2343 -9.91387 0.000533647 1 
10787 1 15.109 37.5081 -7.66339 0.003141 1 
10788 1 15.7641 36.581 -10.3061 0.000389488 1 
10789 1 17.4055 35.8502 -8.0696 0.00159581 1 
10790 1 17.4095 38.5437 -9.03179 0.00130455 1 
10791 1 19.0586 37.805 -6.79428 0.0112498 1 
10792 1 19.7067 36.8859 -9.4343 0.000621692 1 
10793 1 21.3541 36.1557 -7.19035 0.0126544 1 
10794 1 21.349 38.8449 -8.17328 0.0039555 1 
10795 1 23.019 38.0981 -5.94792 0.090033 1 
10796 1 23.6595 37.1916 -8.55216 0.00570554 1 
10797 1 -12.1433 36.4766 -6.25965 0.0318001 1 
10798 1 -12.1459 39.1582 -7.27947 0.00589444 1 
10799 1 -10.5071 38.4524 -5.01626 0.0222218 1 
10800 1 -9.85698 37.5079 -7.66348 0.00314426 1 
10801 1 -8.22857 36.7799 -5.43425 0.0368514 1 
10802 1 -8.20864 39.4776 -6.39297 0.0117146 1 
10803 1 -6.54429 38.7538 -4.18718 0.0765687 1 
10804 1 -5.90737 37.8048 -6.79447 0.0112504 1 
10805 1 -4.243 37.0917 -4.51769 0.29821 1 
10806 1 -4.28069 39.774 -5.57079 0.0441929 1 
10807 1 -2.57818 39.0543 -3.45384 6.30038 5 
10808 1 -1.9469 38.098 -5.94822 0.0898562 1 
10809 1 -0.303764 37.4189 -3.56679 1.80203 5 
10810 1 -0.297248 40.0956 -4.63939 0.285533 1 
10811 1 -0.00291572 38.044 -14.7884 5.51072e-05 1 
10815 1 3.93883 38.3519 -13.9101 5.59124e-05 1 
10817 1 6.23789 36.6962 -14.3064 5.41816e-05 1 
10819 1 7.87957 38.6592 -13.0327 0.000102074 1 
10821 1 10.1806 37.0033 -13.4288 9.58399e-05 1 
10822 1 10.1793 39.7003 -14.3936 5.94863e-05 1 
10823 1 11.8234 38.9658 -12.1579 0.000224348 1 
10824 1 12.48 38.0441 -14.7882 5.49584e-05 1 
10825 1 14.1231 37.3116 -12.549 0.000115587 1 
10826 1 14.1225 40.0079 -13.5171 0.000108735 1 
10827 1 15.7665 39.2746 -11.2774 0.000236963 1 
10828 1 16.4217 38.352 -13.91 5.57853e-05 1 
10829 1 18.0634 37.6194 -11.6709 0.000148877 1 
10830 1 18.0631 40.3161 -12.6389 9.12464e-05 1 
10831 1 19.7026 39.5832 -10.3991 0.000881865 1 
10832 1 20.3624 38.6591 -13.0327 0.000103039 1 
10833 1 22.007 37.9244 -10.7965 0.000468223 1 
10834 1 22.0026 40.6223 -11.7663 0.000235871 1 
10835 1 -13.7985 39.8858 -9.53426 0.00157961 1 
10836 1 -13.1426 38.9657 -12.158 0.000224913 1 
10837 1 -11.4967 38.2341 -9.91397 0.000535166 1 
10838 1 -11.4992 40.9296 -10.8929 0.000676402 1 
10839 1 -9.85116 40.1982 -8.649 0.00173071 1 
10840 1 -9.19948 39.2744 -11.2776 0.000235427 1 
10841 1 -7.55649 38.5436 -9.032 0.00129773 1 
10842 1 -7.55904 41.2402 -10.008 0.0006006 1 
10843 1 -5.92741 40.5139 -7.75641 0.0118525 1 
10844 1 -5.26325 39.5831 -10.3994 0.000878271 1 
10845 1 -3.61695 38.8447 -8.17353 0.00395413 1 
10846 1 -3.62663 41.5452 -9.14197 0.00197565 1 
10847 1 -1.96806 40.8008 -6.9269 0.0184861 1 
10848 1 -1.31543 39.8858 -9.53449 0.00157668 1 
10865 1 16.4211 41.0504 -14.8751 4.88191e-05 1 
10869 1 20.3614 41.358 -13.9995 5.74919e-05 1 
10871 1 22.6621 39.7002 -14.3937 5.94993e-05 1 
10873 1 -13.1453 41.665 -13.126 0.000125156 1 
10875 1 -10.8435 40.0078 -13.5173 0.000108842 1 
10876 1 -10.8452 42.7084 -14.4823 5.99723e-05 1 
10877 1 -9.20186 41.9732 -12.2488 0.00015609 1 
10878 1 -8.54477 41.0503 -14.8754 4.87346e-05 1 
10879 1 -6.90282 40.3159 -12.6391 9.02489e-05 1 
10880 1 -6.90424 43.0164 -13.607 8.828e-05 1 
10881 1 -5.26458 42.2817 -11.3726 0.000218029 1 
10882 1 -4.6044 41.3578 -13.9998 5.73822e-05 1 
10883 1 -2.96314 40.6222 -11.7665 0.000236446 1 
10884 1 -2.96481 43.3242 -12.7338 0.000124667 1 
10885 1 -1.32355 42.588 -10.5065 0.000747252 1 
10886 1 -0.66209 41.665 -13.1261 0.000125991 1 
10919 1 -4.60478 44.0601 -14.9638 6.16523e-05 1 
10923 1 -0.663188 44.3679 -14.0895 7.13454e-05 1 
48194 2 24.5727 12.6008 2.41615 11.269 5 
43376 2 19.678 41.6315 2.44238 0.310794 1 
42262 2 7.1949 41.6314 2.44239 0.310946 1 
48434 2 27.5243 4.29563 2.01092 7.53397 5 
48433 2 24.6369 3.9805 0.349984 8.16308 5 
11713 1 1.69948 24.8949 -0.517082 6.99705 5 
11714 1 0.273043 25.6701 -2.66262 0.216951 1 
11715 1 0.335047 28.3485 -3.58022 0.139489 1 