ITEM: TIMESTEP
0
ITEM: NUMBER OF ATOMS
5128
ITEM: BOX BOUNDS xy xz yz pp pp ss
0.0000000000000000e+00 6.4330014379000005e+01 1.9964487220999999e+01
0.0000000000000000e+00 6.4508249472000003e+01 0.0000000000000000e+00
-1.1029554330549226e+02 1.1938897916201034e+02 0.0000000000000000e+00
ITEM: ATOMS id type x y z c_csym c_cna 
12201 1 2.47158 0.984393 -9.59045 0.00144667 1 
12202 1 44.2514 0.76993 -10.814 0.000835602 1 
12203 1 10.6009 1.52572 -13.5445 0.000128933 1 
12204 1 8.38117 0.558443 -12.0222 0.000577436 1 
12205 1 8.00985 1.31117 -14.7501 7.86009e-05 1 
12206 1 5.78998 0.344379 -13.2206 0.000284834 1 
12207 1 6.90056 2.92586 -12.6595 0.000242533 1 
12208 1 4.68131 1.95663 -11.1223 0.00131248 1 
12209 1 4.31254 2.71023 -13.8615 9.18213e-05 1 
12210 1 2.0982 1.74072 -12.3332 0.000220289 1 
12211 1 3.20472 4.32288 -11.7671 0.000300505 1 
12212 1 45.3592 3.35024 -10.2396 0.000753556 1 
12213 1 44.9839 4.10786 -12.977 0.000103071 1 
12225 1 9.11999 3.89318 -14.186 6.69407e-05 1 
12228 1 7.63922 6.25965 -14.8269 5.15734e-05 1 
12229 1 5.42103 5.29275 -13.2989 9.05172e-05 1 
12231 1 2.83337 5.07646 -14.5041 3.92061e-05 1 
12232 1 3.94065 7.65849 -13.9387 5.575e-05 1 
12233 1 46.0902 6.69075 -12.4095 0.000135339 1 
12235 1 44.6082 9.05773 -13.0484 0.000157484 1 
12264 1 46.825 10.0223 -14.5791 7.64064e-05 1 
13058 1 7.64098 1.40854 -7.22716 0.0324424 1 
13059 1 5.39275 0.445904 -5.58085 0.207984 1 
13060 1 5.04383 1.20038 -8.36857 0.0178176 1 
13061 1 2.84061 0.225195 -6.8287 0.00561329 1 
13062 1 3.93591 2.801 -6.25749 0.0347525 1 
13063 1 1.74541 1.81654 -4.71278 0.0240465 1 
13064 1 1.37001 2.58587 -7.48982 0.00447515 1 
13065 1 44.6401 4.18077 -5.3969 0.0125793 1 
13066 1 19.4726 0.558443 -12.0222 0.000577436 1 
13067 1 16.8814 0.344379 -13.2206 0.000284834 1 
13068 1 15.7727 1.95663 -11.1223 0.00131248 1 
13069 1 13.563 0.984393 -9.59045 0.00144667 1 
13070 1 13.1896 1.74072 -12.3332 0.000220289 1 
13071 1 10.9772 0.76993 -10.814 0.000835602 1 
13072 1 12.0851 3.35024 -10.2396 0.000753556 1 
13073 1 9.873 2.3766 -8.72881 0.00233454 1 
13074 1 9.49401 3.13829 -11.4556 0.0003613 1 
13075 1 7.26999 2.17016 -9.93392 0.00302551 1 
13076 1 8.38793 4.7486 -9.36993 0.00132292 1 
13077 1 6.15902 3.78035 -7.8495 0.00995993 1 
13078 1 5.79096 4.53885 -10.5683 0.000846721 1 
13079 1 3.57418 3.56379 -9.02325 0.00331648 1 
13080 1 4.67984 6.15133 -8.47638 0.00371618 1 
13081 1 2.46685 5.16916 -6.92788 0.00769559 1 
13082 1 2.09738 5.93321 -9.67265 0.000804925 1 
13083 1 44.2574 4.95567 -8.14903 0.00222218 1 
13084 1 45.3601 7.53794 -7.57141 0.00207613 1 
13088 1 21.6923 1.52572 -13.5445 0.000128933 1 
13090 1 19.1012 1.31117 -14.7501 7.86009e-05 1 
13091 1 20.2114 3.89318 -14.186 6.69407e-05 1 
13092 1 17.9919 2.92586 -12.6595 0.000242533 1 
13094 1 15.4039 2.71023 -13.8615 9.18213e-05 1 
13095 1 16.5124 5.29275 -13.2989 9.05172e-05 1 
13096 1 14.2961 4.32288 -11.7671 0.000300505 1 
13097 1 13.9247 5.07646 -14.5041 3.92061e-05 1 
13098 1 11.7097 4.10786 -12.977 0.000103071 1 
13099 1 12.8161 6.69075 -12.4095 0.000135339 1 
13100 1 10.6034 5.71996 -10.885 0.000348389 1 
13101 1 10.2284 6.47541 -13.6186 8.37824e-05 1 
13102 1 8.01176 5.50744 -12.0948 0.000228818 1 
13103 1 9.11995 8.09029 -11.5238 0.000309194 1 
13104 1 6.90324 7.12094 -10.0037 0.000776127 1 
13105 1 6.52982 7.87483 -12.7325 0.000147692 1 
13106 1 4.31139 6.90668 -11.2046 0.000295297 1 
13107 1 5.41905 9.48876 -10.636 0.000413322 1 
13108 1 3.20188 8.51539 -9.10284 0.00106434 1 
13109 1 47.1955 9.27252 -11.8405 0.000142298 1 
13110 1 44.9817 8.30367 -10.3115 0.000464898 1 
13111 1 46.0818 10.885 -9.74115 0.000846319 1 
13130 1 18.7306 6.25965 -14.8269 5.15734e-05 1 
13134 1 15.032 7.65849 -13.9387 5.575e-05 1 
13137 1 13.5509 10.0223 -14.5791 7.64064e-05 1 
13138 1 11.3341 9.05773 -13.0484 0.000157484 1 
13140 1 8.74683 8.84121 -14.2589 7.9997e-05 1 
13141 1 9.85187 11.4217 -13.6884 0.00019401 1 
13142 1 7.63613 10.4572 -12.1605 0.000259336 1 
13143 1 7.26589 11.2038 -14.9009 6.25135e-05 1 
13144 1 5.04819 10.2387 -13.3715 9.07917e-05 1 
13145 1 6.15495 12.8187 -12.8017 0.00021337 1 
13146 1 3.93688 11.8517 -11.2738 0.000441539 1 
13147 1 47.9331 12.5992 -14.0149 0.000141921 1 
13148 1 45.7119 11.6373 -12.4789 0.000483871 1 
13149 1 46.8221 14.2095 -11.9196 0.00143099 1 
13150 1 44.5921 13.255 -10.3729 0.00488701 1 
13151 1 44.23 13.9982 -13.1215 0.00127703 1 
13189 1 8.37183 13.7818 -14.3336 0.000244423 1 
13192 1 6.89428 16.1403 -14.9858 0.000271973 1 
13193 1 49.0425 15.1761 -13.4513 0.000282511 1 
13195 1 46.454 14.9578 -14.665 0.000312546 1 
13196 1 47.5664 17.5337 -14.1106 0.000399545 1 
13197 1 45.3439 16.5669 -12.5783 0.0029182 1 
13244 1 46.0898 19.8951 -14.7756 0.000432993 1 
13915 1 2.0889 0.985685 -1.91283 0.290595 1 
13916 1 64.1559 64.4787 -0.488646 0.469506 1 
13917 1 16.4841 0.445904 -5.58085 0.207984 1 
13918 1 13.932 0.225195 -6.8287 0.00561329 1 
13919 1 12.8368 1.81654 -4.71278 0.0240465 1 
13920 1 10.6492 0.815597 -3.26279 0.0705236 1 
13921 1 10.2534 1.60358 -5.99952 0.010767 1 
13922 1 8.00557 0.623128 -4.55809 0.377668 1 
13923 1 9.16036 3.19235 -3.9465 0.0315691 1 
13924 1 6.90324 2.24557 -2.56039 1.35292 5 
13925 1 6.52613 3.02354 -5.166 0.106017 1 
13926 1 4.2843 2.04742 -3.44515 0.442214 5 
13927 1 5.39331 4.66814 -3.12551 0.670853 1 
13928 1 3.12814 3.67851 -1.35513 6.41165 5 
13929 1 2.82353 4.40845 -4.16216 0.0645362 1 
13930 1 45.0085 3.39481 -2.61624 0.0987689 1 
13931 1 46.1135 6.00724 -2.01432 0.575704 1 
13932 1 24.6543 0.984393 -9.59045 0.00144667 1 
13933 1 22.0686 0.76993 -10.814 0.000835602 1 
13934 1 20.9644 2.3766 -8.72881 0.00233454 1 
13935 1 18.7324 1.40854 -7.22716 0.0324424 1 
13936 1 18.3614 2.17016 -9.93392 0.00302551 1 
13937 1 16.1352 1.20038 -8.36857 0.0178176 1 
13938 1 17.2504 3.78035 -7.8495 0.00995993 1 
13939 1 15.0273 2.801 -6.25749 0.0347525 1 
13940 1 14.6656 3.56379 -9.02325 0.00331648 1 
13941 1 12.4614 2.58587 -7.48982 0.00447515 1 
13942 1 13.5582 5.16916 -6.92788 0.00769559 1 
13943 1 11.366 4.18077 -5.3969 0.0125793 1 
13944 1 10.9833 4.95567 -8.14903 0.00222218 1 
13945 1 8.77274 3.97913 -6.6557 0.0086081 1 
13946 1 9.89021 6.55789 -6.06242 0.00668526 1 
13947 1 7.67836 5.5844 -4.60486 0.0361501 1 
13948 1 7.28303 6.35906 -7.28988 0.00509 1 
13949 1 5.04355 5.39885 -5.77111 0.0447419 1 
13950 1 6.16777 7.96657 -5.206 0.0322528 1 
13951 1 3.93526 6.99202 -3.56521 0.284651 1 
13952 1 3.57237 7.74935 -6.35178 0.016718 1 
13953 1 45.7429 6.76443 -4.81112 0.00821173 1 
13954 1 46.8286 9.33799 -4.25523 0.0227828 1 
13955 1 44.6558 8.34879 -2.69434 0.264708 1 
13956 1 44.2569 9.12967 -5.46561 0.0106826 1 
13957 1 32.7837 1.52572 -13.5445 0.000128933 1 
13958 1 30.5639 0.558443 -12.0222 0.000577436 1 
13959 1 30.1926 1.31117 -14.7501 7.86009e-05 1 
13960 1 27.9727 0.344379 -13.2206 0.000284834 1 
13961 1 29.0833 2.92586 -12.6595 0.000242533 1 
13962 1 26.8641 1.95663 -11.1223 0.00131248 1 
13963 1 26.4953 2.71023 -13.8615 9.18213e-05 1 
13964 1 24.281 1.74072 -12.3332 0.000220289 1 
13965 1 25.3875 4.32288 -11.7671 0.000300505 1 
13966 1 23.1764 3.35024 -10.2396 0.000753556 1 
13967 1 22.8011 4.10786 -12.977 0.000103071 1 
13968 1 20.5854 3.13829 -11.4556 0.0003613 1 
13969 1 21.6948 5.71996 -10.885 0.000348389 1 
13970 1 19.4793 4.7486 -9.36993 0.00132292 1 
13971 1 19.1031 5.50744 -12.0948 0.000228818 1 
13972 1 16.8823 4.53885 -10.5683 0.000846721 1 
13973 1 17.9946 7.12094 -10.0037 0.000776127 1 
13974 1 15.7712 6.15133 -8.47638 0.00371618 1 
13975 1 15.4028 6.90668 -11.2046 0.000295297 1 
13976 1 13.1888 5.93321 -9.67265 0.000804925 1 
13977 1 14.2933 8.51539 -9.10284 0.00106434 1 
13978 1 12.086 7.53794 -7.57141 0.00207613 1 
13979 1 11.7076 8.30367 -10.3115 0.000464898 1 
13980 1 9.49928 7.33022 -8.79389 0.00123798 1 
13981 1 10.5967 9.91475 -8.20988 0.0024542 1 
13982 1 8.3943 8.9362 -6.70491 0.00437236 1 
13983 1 8.00982 9.70469 -9.42739 0.00114016 1 
13984 1 5.79071 8.73138 -7.90984 0.00320844 1 
13985 1 6.89605 11.3184 -7.3317 0.00651064 1 
13986 1 4.67309 10.338 -5.81654 0.0175412 1 
13987 1 4.3063 11.0994 -8.53924 0.00166808 1 
13988 1 46.4562 10.1146 -7.00794 0.00315989 1 
13989 1 47.5585 12.6897 -6.43222 0.019075 1 
13990 1 45.3457 11.6987 -4.92425 0.040015 1 
13991 1 44.9595 12.4976 -7.63987 0.00868779 1 
14002 1 31.3028 3.89318 -14.186 6.69407e-05 1 
14005 1 29.822 6.25965 -14.8269 5.15734e-05 1 
14006 1 27.6038 5.29275 -13.2989 9.05172e-05 1 
14008 1 25.0161 5.07646 -14.5041 3.92061e-05 1 
14009 1 26.1234 7.65849 -13.9387 5.575e-05 1 
14010 1 23.9074 6.69075 -12.4095 0.000135339 1 
14012 1 21.3198 6.47541 -13.6186 8.37824e-05 1 
14013 1 22.4255 9.05773 -13.0484 0.000157484 1 
14014 1 20.2113 8.09029 -11.5238 0.000309193 1 
14015 1 19.8382 8.84121 -14.2589 7.9997e-05 1 
14016 1 17.6212 7.87483 -12.7325 0.000147692 1 
14017 1 18.7275 10.4572 -12.1605 0.000259336 1 
14018 1 16.5104 9.48876 -10.636 0.000413322 1 
14019 1 16.1396 10.2387 -13.3715 9.07917e-05 1 
14020 1 13.9214 9.27252 -11.8405 0.000142298 1 
14021 1 15.0283 11.8517 -11.2738 0.000441539 1 
14022 1 12.8076 10.885 -9.74115 0.000846319 1 
14023 1 12.4378 11.6373 -12.4789 0.000483871 1 
14024 1 10.2214 10.6744 -10.9467 0.000742821 1 
14025 1 11.3179 13.255 -10.3729 0.00488701 1 
14026 1 9.10274 12.295 -8.83806 0.00401459 1 
14027 1 8.73734 13.0398 -11.5837 0.000787194 1 
14028 1 6.52369 12.074 -10.0596 0.00112517 1 
14029 1 7.6184 14.6631 -9.4686 0.00336726 1 
14030 1 5.40726 13.6906 -7.95568 0.00611728 1 
14031 1 5.04428 14.4336 -10.7007 0.00111469 1 
14032 1 47.1907 13.4583 -9.17734 0.00488935 1 
14033 1 48.3026 16.0477 -8.60322 0.00726958 1 
14034 1 46.073 15.057 -7.11488 0.045938 1 
14035 1 45.711 15.8158 -9.83962 0.015842 1 
14036 1 44.5987 17.4225 -7.80241 0.154614 1 
14057 1 24.6422 10.0223 -14.5791 7.64064e-05 1 
14061 1 20.9432 11.4217 -13.6884 0.00019401 1 
14063 1 18.3573 11.2038 -14.9009 6.25135e-05 1 
14064 1 19.4632 13.7818 -14.3336 0.000244423 1 
14065 1 17.2463 12.8187 -12.8017 0.00021337 1 
14067 1 14.6589 12.5992 -14.0149 0.000141921 1 
14068 1 15.7683 15.1761 -13.4513 0.000282511 1 
14069 1 13.5479 14.2095 -11.9196 0.00143099 1 
14070 1 13.1798 14.9578 -14.665 0.000312546 1 
14071 1 10.9559 13.9982 -13.1215 0.00127703 1 
14072 1 12.0698 16.5669 -12.5783 0.0029182 1 
14073 1 9.83452 15.6174 -11.0122 0.0124538 1 
14074 1 9.47821 16.3558 -13.7746 0.00155137 1 
14075 1 7.2591 15.3975 -12.2299 0.000985366 1 
14076 1 8.36324 17.9701 -11.6728 0.0116486 1 
14077 1 6.14871 17.0157 -10.1177 0.00425443 1 
14078 1 5.78531 17.7528 -12.8882 0.00100983 1 
14079 1 47.9363 16.7873 -11.3589 0.00161086 1 
14080 1 49.0464 19.3648 -10.7888 0.00477979 1 
14081 1 46.8364 18.3977 -9.27985 0.0086743 1 
14082 1 46.4629 19.1441 -12.0311 0.00200167 1 
14083 1 44.2355 18.1762 -10.5136 0.0276758 1 
14084 1 45.3622 20.757 -9.97109 0.00781277 1 
14113 1 17.9857 16.1403 -14.9858 0.000271973 1 
14117 1 14.2923 17.5337 -14.1106 0.000399545 1 
14120 1 12.8157 19.8951 -14.7756 0.000432993 1 
14121 1 10.5923 18.9287 -13.2435 0.00272839 1 
14123 1 8.00168 18.7157 -14.4339 0.00131738 1 
14124 1 9.11283 21.2945 -13.9061 0.00193015 1 
14125 1 6.88988 20.3279 -12.3384 0.00853818 1 
14127 1 48.6774 20.1113 -13.5561 0.00099352 1 
14128 1 49.7816 22.6931 -13.0143 0.0025401 1 
14129 1 47.5736 21.7243 -11.4753 0.00315195 1 
14130 1 47.2009 22.4761 -14.227 0.000521719 1 
14131 1 44.9848 21.5082 -12.7051 0.00181767 1 
14132 1 46.097 24.0923 -12.1528 0.00174599 1 
14171 1 7.63475 23.6629 -14.5635 0.000724046 1 
14175 1 48.3069 25.0621 -13.6806 0.000722476 1 
14177 1 45.7224 24.8446 -14.8901 0.000276007 1 
14178 1 46.8312 27.4296 -14.3347 0.000186215 1 
14179 1 44.6177 26.4612 -12.813 0.000836155 1 
14227 1 45.3525 29.7971 -14.9854 7.3917e-05 1 
14770 1 30.8818 64.4787 -0.488646 0.469506 1 
14771 1 21.7405 0.815597 -3.26279 0.0705236 1 
14772 1 19.0969 0.623128 -4.55809 0.377668 1 
14773 1 17.9946 2.24557 -2.56039 1.35292 5 
14774 1 15.3757 2.04742 -3.44515 0.442214 5 
14775 1 13.1803 0.985685 -1.91283 0.290595 1 
14776 1 14.2195 3.67851 -1.35513 6.41165 5 
14777 1 11.7343 3.39481 -2.61624 0.0987689 1 
14778 1 9.53159 2.40167 -1.21819 0.345348 1 
14779 1 10.7206 4.91162 -0.480232 0.703243 1 
14780 1 8.09481 4.80253 -1.93947 0.21997 1 
14781 1 5.75659 3.93104 -0.623544 6.27262 5 
14782 1 4.14894 6.28454 -0.466235 8.20108 5 
14783 1 29.8237 1.40854 -7.22716 0.0324424 1 
14784 1 27.5755 0.445904 -5.58085 0.207984 1 
14785 1 27.2266 1.20038 -8.36857 0.0178176 1 
14786 1 25.0234 0.225195 -6.8287 0.00561329 1 
14787 1 26.1187 2.801 -6.25749 0.0347525 1 
14788 1 23.9282 1.81654 -4.71278 0.0240465 1 
14789 1 23.5528 2.58587 -7.48982 0.00447515 1 
14790 1 21.3448 1.60358 -5.99952 0.010767 1 
14791 1 22.4574 4.18077 -5.3969 0.0125793 1 
14792 1 20.2517 3.19235 -3.9465 0.0315691 1 
14793 1 19.8641 3.97913 -6.6557 0.0086081 1 
14794 1 17.6175 3.02354 -5.166 0.106017 1 
14795 1 18.7697 5.5844 -4.60486 0.0361501 1 
14796 1 16.4847 4.66814 -3.12551 0.670853 1 
14797 1 16.1349 5.39885 -5.77111 0.0447419 1 
14798 1 13.9149 4.40845 -4.16216 0.0645362 1 
14799 1 15.0266 6.99202 -3.56521 0.284651 1 
14800 1 12.8394 6.00724 -2.01432 0.575704 1 
14801 1 12.4687 6.76443 -4.81112 0.00821173 1 
14802 1 10.2912 5.77623 -3.31666 0.0483994 1 
14803 1 11.3817 8.34879 -2.69434 0.264708 1 
14804 1 9.28017 7.33837 -1.22176 0.369805 1 
14805 1 8.78787 8.14721 -3.98085 0.0316214 1 
14806 1 6.55661 7.18865 -2.54722 0.602213 1 
14807 1 7.77676 9.75367 -1.93262 0.246304 1 
14808 1 5.50077 8.89866 -0.576781 10.6671 5 
14809 1 5.02631 9.56538 -3.13239 0.357006 1 
14810 1 2.80796 8.58148 -1.42206 5.78626 5 
14811 1 3.75207 11.061 -0.66045 8.03216 5 
14812 1 45.6869 10.9065 -2.14976 5.73821 5 
14813 1 41.6553 0.558443 -12.0222 0.000577436 1 
14814 1 39.0641 0.344379 -13.2206 0.000284834 1 
14815 1 37.9555 1.95663 -11.1223 0.00131248 1 
14816 1 35.7457 0.984393 -9.59045 0.00144667 1 
14817 1 35.3723 1.74072 -12.3332 0.000220289 1 
14818 1 33.16 0.76993 -10.814 0.000835602 1 
14819 1 34.2678 3.35024 -10.2396 0.000753556 1 
14820 1 32.0558 2.3766 -8.72881 0.00233454 1 
14821 1 31.6768 3.13829 -11.4556 0.0003613 1 
14822 1 29.4528 2.17016 -9.93392 0.00302551 1 
14823 1 30.5707 4.7486 -9.36993 0.00132292 1 
14824 1 28.3418 3.78035 -7.8495 0.00995993 1 
14825 1 27.9737 4.53885 -10.5683 0.000846721 1 
14826 1 25.7569 3.56379 -9.02325 0.00331648 1 
14827 1 26.8626 6.15133 -8.47638 0.00371618 1 
14828 1 24.6496 5.16916 -6.92788 0.00769559 1 
14829 1 24.2801 5.93321 -9.67265 0.000804925 1 
14830 1 22.0747 4.95567 -8.14903 0.00222218 1 
14831 1 23.1774 7.53794 -7.57141 0.00207613 1 
14832 1 20.9816 6.55789 -6.06242 0.00668526 1 
14833 1 20.5907 7.33022 -8.79389 0.00123798 1 
14834 1 18.3744 6.35906 -7.28988 0.00509 1 
14835 1 19.4857 8.9362 -6.70491 0.00437236 1 
14836 1 17.2592 7.96657 -5.206 0.0322528 1 
14837 1 16.8821 8.73138 -7.90984 0.00320844 1 
14838 1 14.6638 7.74935 -6.35178 0.016718 1 
14839 1 15.7645 10.338 -5.81654 0.0175412 1 
14840 1 13.5544 9.33799 -4.25523 0.0227828 1 
14841 1 13.182 10.1146 -7.00794 0.00315989 1 
14842 1 10.9827 9.12967 -5.46561 0.0106826 1 
14843 1 12.0715 11.6987 -4.92425 0.040015 1 
14844 1 9.89 10.7226 -3.37956 0.238093 1 
14845 1 9.48112 11.5264 -6.10417 0.0165959 1 
14846 1 7.28532 10.532 -4.63095 0.0464021 1 
14847 1 8.3268 13.1157 -3.98021 0.264154 1 
14848 1 6.10719 12.0449 -2.55628 0.731031 1 
14849 1 5.76594 12.9222 -5.23343 0.0604994 1 
14850 1 47.9055 11.9036 -3.64364 0.24736 1 
14851 1 4.55954 14.4586 -3.15591 0.434231 1 
14852 1 46.5817 13.4073 -1.5927 6.13714 2 
14853 1 46.4101 14.2675 -4.40477 0.118778 1 
14854 1 44.1737 13.3088 -2.90256 3.82747 5 
14855 1 45.123 15.8444 -2.45842 5.56911 5 
14856 1 43.8751 1.52572 -13.5445 0.000128933 1 
14858 1 41.284 1.31117 -14.7501 7.86009e-05 1 
14859 1 42.3941 3.89318 -14.186 6.69407e-05 1 
14860 1 40.1747 2.92586 -12.6595 0.000242533 1 
14862 1 37.5867 2.71023 -13.8615 9.18213e-05 1 
14863 1 38.6952 5.29275 -13.2989 9.05172e-05 1 
14864 1 36.4789 4.32288 -11.7671 0.000300505 1 
14865 1 36.1075 5.07646 -14.5041 3.92061e-05 1 
14866 1 33.8925 4.10786 -12.977 0.000103071 1 
14867 1 34.9988 6.69075 -12.4095 0.000135339 1 
14868 1 32.7862 5.71996 -10.885 0.000348389 1 
14869 1 32.4112 6.47541 -13.6186 8.37824e-05 1 
14870 1 30.1945 5.50744 -12.0948 0.000228818 1 
14871 1 31.3027 8.09029 -11.5238 0.000309193 1 
14872 1 29.086 7.12094 -10.0037 0.000776127 1 
14873 1 28.7126 7.87483 -12.7325 0.000147692 1 
14874 1 26.4942 6.90668 -11.2046 0.000295297 1 
14875 1 27.6018 9.48876 -10.636 0.000413322 1 
14876 1 25.3846 8.51539 -9.10284 0.00106434 1 
14877 1 25.0128 9.27252 -11.8405 0.000142298 1 
14878 1 22.7989 8.30367 -10.3115 0.000464898 1 
14879 1 23.899 10.885 -9.74115 0.000846319 1 
14880 1 21.6881 9.91475 -8.20988 0.0024542 1 
14881 1 21.3128 10.6744 -10.9467 0.000742821 1 
14882 1 19.1012 9.70469 -9.42739 0.00114016 1 
14883 1 20.1941 12.295 -8.83806 0.00401459 1 
14884 1 17.9874 11.3184 -7.3317 0.00651064 1 
14885 1 17.6151 12.074 -10.0596 0.00112517 1 
14886 1 15.3977 11.0994 -8.53924 0.00166807 1 
14887 1 16.4986 13.6906 -7.95568 0.00611728 1 
14888 1 14.2843 12.6897 -6.43222 0.019075 1 
14889 1 13.9165 13.4583 -9.17734 0.00488935 1 
14890 1 11.6853 12.4976 -7.63987 0.00868779 1 
14891 1 12.7988 15.057 -7.11488 0.045938 1 
14892 1 10.5272 14.1193 -5.53783 0.0908918 1 
14893 1 10.1804 14.8834 -8.25281 0.0513861 1 
14894 1 7.96833 13.9215 -6.71205 0.0228276 1 
14895 1 9.02229 16.5323 -6.06287 0.492278 1 
14896 1 6.80282 15.5438 -4.5455 0.331808 1 
14897 1 6.50186 16.293 -7.33201 0.0248885 1 
14898 1 48.6487 15.298 -5.85783 0.0497586 1 
14899 1 49.7007 17.9017 -5.16261 0.271234 1 
14900 1 47.4557 16.8453 -3.76275 0.337578 1 
14901 1 47.181 17.6514 -6.52095 0.0282263 1 
14902 1 44.9223 16.6526 -5.115 0.464041 1 
14903 1 46.0636 19.2443 -4.46479 0.338539 1 
14906 1 40.9134 6.25965 -14.8269 5.15734e-05 1 
14910 1 37.2148 7.65849 -13.9387 5.575e-05 1 
14913 1 35.7336 10.0223 -14.5791 7.64064e-05 1 
14914 1 33.5168 9.05773 -13.0484 0.000157484 1 
14916 1 30.9296 8.84121 -14.2589 7.9997e-05 1 
14917 1 32.0346 11.4217 -13.6884 0.00019401 1 
14918 1 29.8189 10.4572 -12.1605 0.000259336 1 
14919 1 29.4486 11.2038 -14.9009 6.25135e-05 1 
14920 1 27.2309 10.2387 -13.3715 9.07917e-05 1 
14921 1 28.3377 12.8187 -12.8017 0.00021337 1 
14922 1 26.1196 11.8517 -11.2738 0.000441539 1 
14923 1 25.7503 12.5992 -14.0149 0.000141921 1 
14924 1 23.5291 11.6373 -12.4789 0.000483871 1 
14925 1 24.6393 14.2095 -11.9196 0.00143099 1 
14926 1 22.4093 13.255 -10.3729 0.00488701 1 
14927 1 22.0472 13.9982 -13.1215 0.00127703 1 
14928 1 19.8287 13.0398 -11.5837 0.000787194 1 
14929 1 20.9259 15.6174 -11.0122 0.0124538 1 
14930 1 18.7098 14.6631 -9.4686 0.00336726 1 
14931 1 18.3505 15.3975 -12.2299 0.000985366 1 
14932 1 16.1357 14.4336 -10.7007 0.00111469 1 
14933 1 17.2401 17.0157 -10.1177 0.00425443 1 
14934 1 15.0285 16.0477 -8.60322 0.00726958 1 
14935 1 14.6622 16.7873 -11.3589 0.00161086 1 
14936 1 12.4369 15.8158 -9.83962 0.015842 1 
14937 1 13.5623 18.3977 -9.27985 0.0086743 1 
14938 1 11.3246 17.4225 -7.80241 0.154614 1 
14939 1 10.9613 18.1762 -10.5136 0.0276758 1 
14940 1 8.70336 17.2491 -8.8769 0.111788 1 
14941 1 9.85045 19.7957 -8.49351 0.225512 1 
14942 1 7.55187 18.9082 -6.64727 0.936786 1 
14943 1 7.24715 19.587 -9.55326 0.0871586 1 
14944 1 49.4117 18.6307 -7.99034 0.0366636 1 
14945 1 50.4934 21.2191 -7.44757 0.341038 1 
14946 1 48.2857 20.2429 -5.89634 0.246347 1 
14947 1 47.9437 20.9776 -8.69869 0.0159424 1 
14948 1 45.7315 20.0102 -7.23022 0.0225108 1 
14949 1 46.8305 22.5954 -6.62475 0.0657709 1 
14950 1 44.65 21.626 -5.1968 0.214257 1 
14951 1 44.2622 22.3749 -7.93618 0.0253324 1 
14966 1 30.5546 13.7818 -14.3336 0.000244423 1 
14969 1 29.077 16.1403 -14.9858 0.000271973 1 
14970 1 26.8597 15.1761 -13.4513 0.000282511 1 
14972 1 24.2712 14.9578 -14.665 0.000312546 1 
14973 1 25.3837 17.5337 -14.1106 0.000399545 1 
14974 1 23.1611 16.5669 -12.5783 0.0029182 1 
14976 1 20.5696 16.3558 -13.7746 0.00155137 1 
14977 1 21.6836 18.9287 -13.2435 0.00272839 1 
14978 1 19.4546 17.9701 -11.6728 0.0116486 1 
14979 1 19.0931 18.7157 -14.4339 0.00131738 1 
14980 1 16.8767 17.7528 -12.8882 0.00100983 1 
14981 1 17.9813 20.3279 -12.3384 0.00853818 1 
14982 1 15.7723 19.3648 -10.7888 0.00477979 1 
14983 1 15.4032 20.1113 -13.5561 0.00099352 1 
14984 1 13.1887 19.1441 -12.0311 0.00200167 1 
14985 1 14.2995 21.7243 -11.4753 0.00315195 1 
14986 1 12.088 20.757 -9.97109 0.00781277 1 
14987 1 11.7107 21.5082 -12.7051 0.00181767 1 
14988 1 9.48062 20.5449 -11.1837 0.0199777 1 
14989 1 10.6078 23.126 -10.6501 0.00756502 1 
14990 1 8.36164 22.1803 -9.14911 0.0839317 1 
14991 1 7.99885 22.9147 -11.8399 0.0084009 1 
14992 1 50.141 21.9447 -10.2488 0.0266095 1 
14993 1 51.2438 24.5469 -9.77551 0.0370316 1 
14994 1 49.0193 23.5756 -8.17696 0.0525689 1 
14995 1 48.6703 24.3135 -10.9359 0.00682101 1 
14996 1 46.4717 23.3406 -9.40238 0.00944882 1 
14997 1 47.5717 25.9303 -8.83196 0.00505006 1 
14998 1 45.3827 24.9581 -7.33205 0.0243657 1 
14999 1 44.999 25.71 -10.0801 0.00529844 1 
15021 1 23.9071 19.8951 -14.7756 0.000432993 1 
15025 1 20.2042 21.2945 -13.9061 0.00193015 1 
15028 1 18.7261 23.6629 -14.5635 0.000724046 1 
15029 1 16.5075 22.6931 -13.0143 0.0025401 1 
15031 1 13.9268 22.4761 -14.227 0.000521719 1 
15032 1 15.0328 25.0621 -13.6806 0.000722476 1 
15033 1 12.8229 24.0923 -12.1528 0.00174599 1 
15034 1 12.4482 24.8446 -14.8901 0.000276007 1 
15035 1 10.2293 23.8774 -13.3683 0.00125537 1 
15036 1 11.3436 26.4612 -12.813 0.000836155 1 
15037 1 9.12183 25.4969 -11.3023 0.00449769 1 
15038 1 8.74826 26.247 -14.019 0.000602933 1 
15039 1 50.887 25.2842 -12.4853 0.00336736 1 
15040 1 52.0017 27.8639 -11.9386 0.00261341 1 
15041 1 49.7754 26.8984 -10.3743 0.0144904 1 
15042 1 49.4139 27.6475 -13.1262 0.000991507 1 
15043 1 47.2032 26.6786 -11.5924 0.00124886 1 
15044 1 48.3049 29.2609 -11.0348 0.00251893 1 
15045 1 46.0987 28.2888 -9.49993 0.00362717 1 
15046 1 45.7256 29.0439 -12.2486 0.000583936 1 
15047 1 44.6219 30.6554 -10.1639 0.00187537 1 
15080 1 13.5571 27.4296 -14.3347 0.000186215 1 
15083 1 12.0784 29.7971 -14.9854 7.3917e-05 1 
15084 1 9.86123 28.8291 -13.4623 0.000311566 1 
15086 1 51.634 28.6149 -14.6643 0.000213328 1 
15087 1 52.7461 31.1975 -14.1077 0.000169055 1 
15088 1 50.5235 30.2315 -12.5793 0.000727804 1 
15090 1 47.9383 30.0138 -13.7773 0.000216305 1 
15091 1 49.0464 32.5985 -13.2206 0.000284834 1 
15092 1 46.8306 31.6283 -11.6884 0.000679832 1 
15093 1 46.4607 32.3812 -14.425 8.72124e-05 1 
15094 1 44.2461 31.4117 -12.8998 0.000251868 1 
15095 1 45.3546 33.9948 -12.3332 0.000220289 1 
15136 1 51.2662 33.5653 -14.7501 7.86009e-05 1 
15140 1 47.5689 34.9644 -13.8615 9.18213e-05 1 
15143 1 46.0898 37.3306 -14.5041 3.92061e-05 1 
15604 1 24.2717 0.985685 -1.91283 0.290595 1 
15605 1 41.9732 64.4787 -0.488646 0.469506 1 
15606 1 20.623 2.40167 -1.21819 0.345348 1 
15607 1 16.848 3.93104 -0.623544 6.27262 5 
15608 1 38.6669 0.445904 -5.58085 0.207984 1 
15609 1 36.1148 0.225195 -6.8287 0.00561329 1 
15610 1 35.0196 1.81654 -4.71278 0.0240465 1 
15611 1 32.8319 0.815597 -3.26279 0.0705236 1 
15612 1 32.4362 1.60358 -5.99952 0.010767 1 
15613 1 30.1883 0.623128 -4.55809 0.377668 1 
15614 1 31.3431 3.19235 -3.9465 0.0315691 1 
15615 1 29.086 2.24557 -2.56039 1.35292 5 
15616 1 28.7089 3.02354 -5.166 0.106017 1 
15617 1 26.4671 2.04742 -3.44515 0.442214 5 
15618 1 27.5761 4.66814 -3.12551 0.670853 1 
15619 1 25.3109 3.67851 -1.35513 6.41165 5 
15620 1 25.0063 4.40845 -4.16216 0.0645362 1 
15621 1 22.8257 3.39481 -2.61624 0.0987689 1 
15622 1 23.9307 6.00724 -2.01432 0.575704 1 
15623 1 21.8119 4.91162 -0.480232 0.703243 1 
15624 1 21.3826 5.77623 -3.31666 0.0483994 1 
15625 1 19.1862 4.80253 -1.93947 0.21997 1 
15626 1 20.3716 7.33837 -1.22176 0.369805 1 
15627 1 17.648 7.18865 -2.54722 0.602213 1 
15628 1 15.2403 6.28454 -0.466235 8.20108 5 
15629 1 16.5921 8.89866 -0.576781 10.6671 5 
15630 1 13.8993 8.58148 -1.42206 5.78626 5 
15631 1 10.5254 9.81403 -0.461463 1.38046 5 
15632 1 43.1471 2.3766 -8.72881 0.00233454 1 
15633 1 40.9151 1.40854 -7.22716 0.0324424 1 
15634 1 40.5441 2.17016 -9.93392 0.00302551 1 
15635 1 38.318 1.20038 -8.36857 0.0178176 1 
15636 1 39.4332 3.78035 -7.8495 0.00995993 1 
15637 1 37.2101 2.801 -6.25749 0.0347525 1 
15638 1 36.8483 3.56379 -9.02325 0.00331648 1 
15639 1 34.6442 2.58587 -7.48982 0.00447515 1 
15640 1 35.741 5.16916 -6.92788 0.00769559 1 
15641 1 33.5488 4.18077 -5.3969 0.0125793 1 
15642 1 33.1661 4.95567 -8.14903 0.00222218 1 
15643 1 30.9555 3.97913 -6.6557 0.0086081 1 
15644 1 32.073 6.55789 -6.06242 0.00668526 1 
15645 1 29.8611 5.5844 -4.60486 0.0361501 1 
15646 1 29.4658 6.35906 -7.28988 0.00509 1 
15647 1 27.2263 5.39885 -5.77111 0.0447419 1 
15648 1 28.3505 7.96657 -5.206 0.0322528 1 
15649 1 26.118 6.99202 -3.56521 0.284651 1 
15650 1 25.7551 7.74935 -6.35178 0.016718 1 
15651 1 23.5601 6.76443 -4.81112 0.00821173 1 
15652 1 24.6458 9.33799 -4.25523 0.0227828 1 
15653 1 22.4731 8.34879 -2.69434 0.264708 1 
15654 1 22.0741 9.12967 -5.46561 0.0106826 1 
15655 1 19.8793 8.14721 -3.98085 0.0316214 1 
15656 1 20.9814 10.7226 -3.37956 0.238093 1 
15657 1 18.8681 9.75367 -1.93262 0.246304 1 
15658 1 18.3767 10.532 -4.63095 0.0464021 1 
15659 1 16.1177 9.56538 -3.13239 0.357006 1 
15660 1 17.1986 12.0449 -2.55628 0.731031 1 
15661 1 14.8434 11.061 -0.66045 8.03216 5 
15662 1 14.6313 11.9036 -3.64364 0.24736 1 
15663 1 12.4128 10.9065 -2.14976 5.73821 5 
15664 1 13.3076 13.4073 -1.5927 6.13714 2 
15665 1 10.8996 13.3088 -2.90256 3.82747 5 
15666 1 9.06604 12.2746 -1.2148 1.84931 5 
15667 1 10.9381 14.5505 -0.226712 6.79244 5 
15668 1 7.17146 14.4882 -1.8241 7.42617 5 
15669 1 4.74296 13.5447 -0.56833 11.7495 5 
15670 1 47.4367 15.8775 -1.04446 2.89446 5 
15671 1 43.2696 17.2032 -0.843248 6.66275 5 
15672 1 42.7682 3.13829 -11.4556 0.0003613 1 
15673 1 43.8776 5.71996 -10.885 0.000348389 1 
15674 1 41.6621 4.7486 -9.36993 0.00132292 1 
15675 1 41.2859 5.50744 -12.0948 0.000228818 1 
15676 1 39.0651 4.53885 -10.5683 0.000846721 1 
15677 1 40.1774 7.12094 -10.0037 0.000776127 1 
15678 1 37.954 6.15133 -8.47638 0.00371618 1 
15679 1 37.5855 6.90668 -11.2046 0.000295297 1 
15680 1 35.3715 5.93321 -9.67265 0.000804925 1 
15681 1 36.476 8.51539 -9.10284 0.00106434 1 
15682 1 34.2687 7.53794 -7.57141 0.00207613 1 
15683 1 33.8903 8.30367 -10.3115 0.000464898 1 
15684 1 31.682 7.33022 -8.79389 0.00123798 1 
15685 1 32.7795 9.91475 -8.20988 0.0024542 1 
15686 1 30.5771 8.9362 -6.70491 0.00437236 1 
15687 1 30.1926 9.70469 -9.42739 0.00114016 1 
15688 1 27.9735 8.73138 -7.90984 0.00320844 1 
15689 1 29.0788 11.3184 -7.3317 0.00651064 1 
15690 1 26.8559 10.338 -5.81654 0.0175412 1 
15691 1 26.4891 11.0994 -8.53924 0.00166808 1 
15692 1 24.2734 10.1146 -7.00794 0.00315989 1 
15693 1 25.3757 12.6897 -6.43222 0.019075 1 
15694 1 23.1629 11.6987 -4.92425 0.040015 1 
15695 1 22.7767 12.4976 -7.63987 0.00868779 1 
15696 1 20.5725 11.5264 -6.10417 0.0165959 1 
15697 1 21.6186 14.1193 -5.53783 0.0908918 1 
15698 1 19.4182 13.1157 -3.98021 0.264154 1 
15699 1 19.0597 13.9215 -6.71205 0.0228276 1 
15700 1 16.8573 12.9222 -5.23343 0.0604994 1 
15701 1 17.8942 15.5438 -4.5455 0.331808 1 
15702 1 15.6509 14.4586 -3.15591 0.434231 1 
15703 1 15.3745 15.298 -5.85783 0.0497586 1 
15704 1 13.136 14.2675 -4.40477 0.118778 1 
15705 1 14.1816 16.8453 -3.76275 0.337578 1 
15706 1 11.8489 15.8444 -2.45842 5.56911 5 
15707 1 11.6481 16.6526 -5.115 0.464041 1 
15708 1 9.26993 15.7298 -3.30871 7.16883 5 
15709 1 10.4149 18.2759 -3.26572 5.96756 5 
15710 1 7.39738 16.5692 -0.0510565 7.54753 5 
15711 1 7.68421 18.1948 -3.69483 7.34622 5 
15712 1 5.54158 16.8568 -2.22554 2.4279 5 
15713 1 6.36568 19.1741 -1.03809 6.20167 5 
15714 1 48.2413 18.2661 -0.0676943 0.439269 1 
15715 1 48.549 19.3138 -2.91259 1.2541 5 
15716 1 46.046 18.3339 -1.74998 0.696441 1 
15717 1 47.0337 20.7799 -0.884233 0.189939 1 
15718 1 44.7683 20.8085 -2.51174 0.424323 1 
15719 1 43.5026 6.47541 -13.6186 8.37824e-05 1 
15720 1 42.3941 8.09029 -11.5238 0.000309193 1 
15721 1 42.021 8.84121 -14.2589 7.9997e-05 1 
15722 1 39.804 7.87483 -12.7325 0.000147692 1 
15723 1 40.9103 10.4572 -12.1605 0.000259336 1 
15724 1 38.6932 9.48876 -10.636 0.000413322 1 
15725 1 38.3223 10.2387 -13.3715 9.07917e-05 1 
15726 1 36.1041 9.27252 -11.8405 0.000142298 1 
15727 1 37.211 11.8517 -11.2738 0.000441539 1 
15728 1 34.9904 10.885 -9.74115 0.000846319 1 
15729 1 34.6205 11.6373 -12.4789 0.000483871 1 
15730 1 32.4042 10.6744 -10.9467 0.000742821 1 
15731 1 33.5007 13.255 -10.3729 0.00488701 1 
15732 1 31.2855 12.295 -8.83806 0.00401459 1 
15733 1 30.9201 13.0398 -11.5837 0.000787194 1 
15734 1 28.7065 12.074 -10.0596 0.00112517 1 
15735 1 29.8012 14.6631 -9.4686 0.00336726 1 
15736 1 27.59 13.6906 -7.95568 0.00611728 1 
15737 1 27.227 14.4336 -10.7007 0.00111469 1 
15738 1 25.0079 13.4583 -9.17734 0.00488935 1 
15739 1 26.1199 16.0477 -8.60322 0.00726958 1 
15740 1 23.8902 15.057 -7.11488 0.045938 1 
15741 1 23.5282 15.8158 -9.83962 0.015842 1 
15742 1 21.2717 14.8834 -8.25281 0.0513861 1 
15743 1 22.4159 17.4225 -7.80241 0.154614 1 
15744 1 20.1137 16.5323 -6.06287 0.492278 1 
15745 1 19.7947 17.2491 -8.8769 0.111788 1 
15746 1 17.5932 16.293 -7.33201 0.0248885 1 
15747 1 18.6433 18.9082 -6.64727 0.936786 1 
15748 1 16.4265 17.9017 -5.16261 0.271234 1 
15749 1 16.1376 18.6307 -7.99034 0.0366636 1 
15750 1 13.9069 17.6514 -6.52095 0.0282263 1 
15751 1 15.0116 20.2429 -5.89634 0.246347 1 
15752 1 12.7895 19.2443 -4.46479 0.338539 1 
15753 1 12.4573 20.0102 -7.23022 0.0225108 1 
15754 1 10.2085 19.0569 -5.84556 1.25027 1 
15755 1 11.3759 21.626 -5.1968 0.214257 1 
15756 1 9.01103 20.6947 -3.98197 5.91186 5 
15757 1 8.74128 21.4484 -6.52641 1.06031 1 
15758 1 50.6281 20.6075 -4.3614 7.59183 5 
15759 1 7.60982 23.1166 -4.58842 9.86979 5 
15760 1 49.4818 21.7542 -1.81818 2.93699 5 
15761 1 49.3514 22.8845 -5.40955 1.5723 5 
15762 1 47.2721 21.7581 -3.73278 1.5992 5 