ITEM: TIMESTEP
0
ITEM: NUMBER OF ATOMS
5163
ITEM: BOX BOUNDS xy xz yz pp pp ss
-6.9666324279999996e+00 8.2405309294999995e+01 -6.9666324279999996e+00
0.0000000000000000e+00 3.5083629125000002e+01 0.0000000000000000e+00
-1.0573950654732091e+02 1.0982856276434259e+02 0.0000000000000000e+00
ITEM: ATOMS id type x y z c_csym c_cna 
1 1 79.3815 0.112507 -2.79304 5.98245 5 
2 1 80.8256 2.47489 -1.98999 3.25742 5 
3 1 80.9843 0.373887 -9.47579 0.00132813 1 
4 1 81.8936 1.05002 -6.81959 0.014383 1 
5 1 80.5803 3.58377 -6.98952 0.00802336 1 
6 1 -0.33154 5.96992 -6.53274 0.0178011 1 
7 1 81.4874 4.22411 -4.29946 0.0937872 1 
8 1 80.155 6.77867 -4.62282 0.186816 1 
9 1 -0.733631 9.21748 -4.01701 1.52264 5 
10 1 80.8762 7.44382 -2.03164 10.0757 5 
11 1 79.6534 10.0522 -1.89246 5.17776 5 
12 1 -0.947737 12.3199 -1.25425 6.34177 5 
13 1 79.0989 1.17814 -7.47461 0.0056011 1 
14 1 80.0029 1.86409 -4.8126 0.100046 1 
15 1 77.1983 1.94621 -5.46149 0.0307858 1 
16 1 78.6564 4.36929 -5.00489 0.0439175 1 
17 1 78.0557 2.61308 -2.81042 0.255599 1 
18 1 79.5908 5.0079 -2.4649 3.4203 5 
19 1 76.7605 5.18688 -2.93619 1.7362 5 
20 1 78.1762 7.64498 -2.65519 5.46061 5 
21 1 78.6747 6.40549 -0.367167 9.61168 5 
22 1 76.6022 0.175922 -3.21232 0.392001 1 
23 1 73.7745 0.328101 -3.92601 0.0815585 1 
24 1 75.2723 2.73265 -3.5556 0.212255 1 
25 1 74.7368 0.985759 -1.37824 3.5072 5 
26 1 73.2592 3.5871 -1.6163 5.76365 5 
27 1 71.8815 1.13087 -1.86 1.97401 5 
28 1 -0.639133 7.0601 -11.3791 0.000168229 1 
29 1 -1.03735 10.2638 -8.9134 0.00366749 1 
30 1 -1.39793 13.4585 -6.40293 0.0718122 1 
31 1 -0.424829 14.1246 -3.69284 0.546218 1 
32 1 -1.74973 16.6974 -4.04851 0.107528 1 
33 1 -0.354742 19.1692 -3.45495 6.22407 5 
34 1 -0.857462 17.3578 -1.4189 11.6102 5 
35 1 -2.71683 19.3701 -0.394738 6.83674 5 
36 1 -0.875965 21.2498 -1.07987 10.3424 5 
37 1 80.6744 1.46001 -14.3109 0.000113087 1 
38 1 81.5714 2.11704 -11.6559 0.000524702 1 
39 1 78.7882 2.25785 -12.3079 0.000165136 1 
40 1 80.2772 4.66006 -11.8408 0.000102443 1 
41 1 79.6848 2.91745 -9.65168 0.000865134 1 
42 1 81.174 5.31787 -9.18642 0.000981874 1 
43 1 78.3867 5.4563 -9.83903 0.000595072 1 
44 1 79.8806 7.86308 -9.37129 0.00148265 1 
45 1 79.2734 6.11566 -7.20055 0.0126657 1 
46 1 -1.6276 8.5356 -6.7134 0.0233197 1 
47 1 77.9971 8.66379 -7.36029 0.00606989 1 
48 1 79.4975 11.0794 -6.85906 0.0399008 1 
49 1 78.8892 9.35264 -4.69771 0.101148 1 
50 1 -2.01392 11.7323 -4.0993 0.415436 1 
51 1 77.6158 11.8716 -4.85773 0.0594546 1 
52 1 79.158 14.268 -4.45369 0.0614584 1 
53 1 78.5303 12.6072 -2.14622 0.76281 5 
54 1 -2.2601 14.9153 -1.87082 5.45805 5 
55 1 77.2523 15.1157 -2.62645 5.52534 5 
56 1 78.7343 17.4944 -2.16927 9.83878 5 
57 1 78.1965 0.511544 -10.1275 0.000550332 1 
58 1 75.409 0.648204 -10.7809 0.000264858 1 
59 1 76.898 3.05255 -10.306 0.00022814 1 
60 1 76.303 1.30437 -8.12401 0.00155712 1 
61 1 77.7857 3.70779 -7.6489 0.0026813 1 
62 1 75.004 3.84364 -8.30257 0.00124198 1 
63 1 76.4899 6.25006 -7.83426 0.00318473 1 
64 1 75.887 4.50802 -5.63956 0.0222549 1 
65 1 77.3553 6.90547 -5.19216 0.0692671 1 
66 1 74.5959 7.04438 -5.79904 0.0423999 1 
67 1 76.1101 9.43506 -5.34534 0.06851 1 
68 1 75.4407 7.68115 -3.03909 0.436662 1 
69 1 76.9257 10.1202 -2.66557 0.550031 1 
70 1 74.1829 10.2085 -3.46905 0.22301 1 
71 1 75.7284 12.7018 -2.95922 0.279476 1 
72 1 76.6303 13.6961 -0.360969 6.62416 5 
73 1 73.8138 13.5499 -1.13544 10.1879 5 
74 1 73.5128 1.43758 -8.78341 0.000614659 1 
75 1 74.3937 2.08562 -6.1354 0.0118727 1 
76 1 71.6051 2.21645 -6.78044 0.00403212 1 
77 1 73.1038 4.6268 -6.30198 0.00562915 1 
78 1 72.46 2.85418 -4.13988 0.0918531 1 
79 1 73.9723 5.30107 -3.6422 0.117362 1 
80 1 71.1952 5.38015 -4.27705 0.0754062 1 
81 1 72.6827 7.80707 -3.80282 0.102847 1 
82 1 71.9614 6.05603 -1.58717 0.66842 1 
83 1 73.5866 8.48374 -1.08485 1.61127 5 
84 1 70.7913 8.62283 -1.90258 0.61839 5 
85 1 72.2093 11.0323 -1.69069 6.41694 5 
86 1 71.0043 0.46326 -4.58183 0.0349865 1 
87 1 68.2309 0.588054 -5.28547 0.0144707 1 
88 1 69.698 2.99527 -4.74825 0.0363016 1 
89 1 69.0829 1.23146 -2.59782 0.0993184 1 
90 1 70.5195 3.61663 -1.98933 0.377765 1 
91 1 67.7783 3.73928 -2.73299 0.140294 1 
92 1 69.232 6.14821 -2.38584 0.273715 1 
93 1 69.0033 9.7036 -0.081863 6.66684 5 
94 1 66.32 1.36472 -3.29251 0.101462 1 
95 1 64.3295 2.03835 -1.28295 1.48321 5 
96 1 65.9187 4.47413 -0.807605 2.23773 5 
97 1 -0.647081 20.1685 -8.38616 0.00248451 1 
98 1 -1.03796 23.3953 -5.87003 0.063086 1 
99 1 -1.38408 26.5833 -3.60218 5.90999 5 
100 1 0.463617 28.2105 -0.631271 6.80021 5 
107 1 80.8708 6.40616 -14.0317 5.11294e-05 1 
108 1 79.5786 8.95151 -14.2181 9.09416e-05 1 
109 1 -1.33766 11.352 -13.7606 0.000136846 1 
110 1 80.4736 9.60546 -11.5653 0.000407774 1 
111 1 -0.441515 12.0055 -11.1121 0.000650128 1 
112 1 79.1855 12.1507 -11.7509 0.0010298 1 
113 1 -1.73038 14.5517 -11.2972 0.000966199 1 
114 1 -2.3171 12.8079 -9.08767 0.00725553 1 
115 1 -0.823817 15.2055 -8.64086 0.0070405 1 
116 1 78.7974 15.3519 -9.30345 0.00266504 1 
117 1 -2.12144 17.7621 -8.84312 0.00203184 1 
118 1 -2.68587 16.0095 -6.66884 0.0210164 1 
119 1 -1.20916 18.4369 -6.1896 0.0240178 1 
120 1 78.4086 18.5825 -6.85459 0.0129642 1 
121 1 -2.52211 20.9879 -6.37279 0.00949148 1 
122 1 -3.11637 19.2527 -4.20289 1.96979 5 
123 1 -1.63302 21.6488 -3.71569 5.08286 5 
124 1 78.0104 21.7505 -4.29714 0.196437 1 
125 1 -2.94913 24.1884 -3.90404 0.257102 1 
126 1 -3.40892 22.3858 -1.64934 6.76165 5 
127 1 -2.35934 25.0933 -1.34393 5.43079 5 
128 1 77.3691 24.9666 -2.03078 10.3336 5 
129 1 -2.25745 27.9258 -1.49051 10.8013 5 
134 1 77.8916 1.60333 -14.9609 6.18642e-05 1 
135 1 79.3814 4.00543 -14.4945 5.05387e-05 1 
137 1 78.0889 6.55021 -14.68 5.54215e-05 1 
138 1 77.4939 4.80084 -12.4922 6.5057e-05 1 
139 1 78.9848 7.20369 -12.0264 0.000160541 1 
140 1 76.2035 7.34414 -12.6788 0.000214124 1 
141 1 77.6959 9.74837 -12.212 0.000741115 1 
142 1 77.1007 7.99966 -10.0219 0.000864333 1 
143 1 78.5957 10.4079 -9.54627 0.00484215 1 
144 1 75.8155 10.5409 -10.2175 0.00163168 1 
145 1 77.306 12.9467 -9.75477 0.00131633 1 
146 1 76.7184 11.1973 -7.54807 0.00910902 1 
147 1 78.2154 13.6042 -7.098 0.00844476 1 
148 1 75.421 13.7453 -7.78412 0.00418632 1 
149 1 76.912 16.1584 -7.33676 0.0135324 1 
150 1 76.3207 14.4139 -5.16137 0.0361836 1 
151 1 77.8366 16.8273 -4.76324 0.109507 1 
152 1 75.0117 16.9646 -5.35298 0.0436778 1 
153 1 76.5105 19.3964 -4.8427 0.0749319 1 
154 1 75.9022 17.6547 -2.81009 5.87265 5 
155 1 77.38 20.0144 -2.02978 5.37461 5 
156 1 74.5799 20.1525 -2.82498 0.242219 1 
157 1 76.1133 22.5346 -2.46771 3.53813 5 
158 1 75.2068 23.9348 -0.368529 10.5108 5 
160 1 67.5462 35.0769 -13.4326 0.000122529 1 
161 1 76.0036 2.3978 -12.9606 9.68194e-05 1 
162 1 73.2182 2.5371 -13.6141 0.000111571 1 
163 1 74.7104 4.94057 -13.1453 0.000115593 1 
164 1 74.1134 3.18908 -10.9608 0.000269364 1 
165 1 75.6044 5.59337 -10.4902 0.000348676 1 
166 1 72.8218 5.72865 -11.1473 0.000772515 1 
167 1 74.3181 8.13307 -10.6839 0.00110059 1 
168 1 73.715 6.38145 -8.48402 0.00491674 1 
169 1 75.2172 8.78654 -8.02507 0.00719057 1 
170 1 72.4283 8.91285 -8.70953 0.00375563 1 
171 1 73.9317 11.3287 -8.25174 0.00439841 1 
172 1 73.3232 9.55869 -6.07556 0.027025 1 
173 1 74.8342 11.9908 -5.6094 0.0203906 1 
174 1 72.0404 12.1241 -6.32364 0.023993 1 
175 1 73.5264 14.5599 -5.81342 0.021077 1 
176 1 72.9244 12.8048 -3.72683 0.100434 1 
177 1 74.4037 15.2486 -3.17724 2.75644 5 
178 1 71.6195 15.3659 -3.77555 0.106082 1 
179 1 73.1169 17.7154 -3.22451 0.373462 1 
180 1 72.4053 15.9896 -0.895026 5.18268 5 
181 1 71.2495 18.5248 -1.38463 3.51842 5 
182 1 71.7257 0.132246 -14.0847 9.39783e-05 1 
183 1 72.6217 0.783714 -11.4362 0.000228256 1 
184 1 69.834 0.919145 -12.0897 0.000187191 1 
185 1 71.3272 3.32438 -11.6177 0.000269977 1 
186 1 70.7261 1.56826 -9.43871 0.000610783 1 
187 1 72.2195 3.9738 -8.96209 0.000762784 1 
188 1 69.4328 4.10528 -9.62452 0.000923202 1 
189 1 70.9296 6.50832 -9.1591 0.00206234 1 
190 1 70.3222 4.7478 -6.96416 0.00645008 1 
191 1 71.8173 7.15139 -6.4929 0.015501 1 
192 1 69.0283 7.27949 -7.19291 0.00363235 1 
193 1 70.5271 9.69054 -6.76926 0.0151519 1 
194 1 69.9095 7.9233 -4.55472 0.0247478 1 
195 1 71.4024 10.3401 -4.20014 0.118995 1 
196 1 68.6105 10.4794 -4.84259 0.0612513 1 
197 1 70.1566 12.9324 -4.39543 0.0885433 1 
198 1 69.4967 11.1687 -2.3384 5.5512 5 
199 1 70.9915 13.6306 -1.73006 7.93732 5 
200 1 68.2327 13.7131 -2.44804 5.63954 5 
201 1 69.6767 16.1045 -1.71538 2.66269 5 
202 1 67.9397 1.70215 -10.0952 0.000781655 1 
203 1 60.3757 35.0217 -7.93092 0.00153518 1 
204 1 68.8279 2.34943 -7.43708 0.00526805 1 
205 1 66.0383 2.4791 -8.10184 0.00266564 1 
206 1 67.5293 4.8772 -7.64368 0.00230902 1 
207 1 66.9158 3.12141 -5.44035 0.020999 1 
208 1 68.411 5.50438 -5.00391 0.0257792 1 
209 1 65.6047 5.63884 -5.67674 0.0156899 1 
210 1 67.1209 8.05609 -5.2479 0.0177607 1 
211 1 66.4602 6.26101 -3.11968 0.208042 1 
212 1 68.0194 8.73221 -2.64154 0.261206 1 
213 1 65.2165 8.84149 -3.30471 0.15002 1 
214 1 66.7251 11.2716 -2.79636 2.41805 5 
215 1 66.0925 9.52148 -0.751294 6.91501 5 
216 1 64.5525 0.0713281 -8.58252 0.000548801 1 
217 1 65.4416 0.710152 -5.9414 0.00393362 1 
218 1 62.6547 0.841768 -6.5946 0.00363539 1 
219 1 64.121 3.24689 -6.10428 0.0102389 1 
220 1 63.538 1.45567 -3.94606 0.0494738 1 
221 1 64.9791 3.86519 -3.44393 0.0758822 1 
222 1 62.1989 4.0233 -4.10037 0.233631 1 
223 1 63.6655 6.3971 -3.69662 0.22222 1 
224 1 63.1359 4.64593 -1.43793 5.42483 5 
225 1 61.7719 7.15719 -1.40141 4.88652 5 
226 1 60.748 1.60405 -4.63546 0.0586309 1 
227 1 53.183 34.8895 -2.4213 0.0905467 1 
228 1 61.6098 2.15068 -2.0647 6.26823 5 
229 1 58.8821 2.38368 -2.62439 6.43609 5 
230 1 60.307 4.70334 -1.72525 7.85294 5 
231 1 50.3848 35.0664 -3.0958 0.0926059 1 
232 1 58.3939 0.579517 -0.462595 5.44459 5 
233 1 -0.620007 33.3285 -5.36159 0.195743 1 
242 1 -1.14181 16.3005 -13.4933 0.000168436 1 
243 1 -2.4362 18.8512 -13.6788 0.000122959 1 
244 1 -0.949837 21.2534 -13.2222 0.000208775 1 
245 1 -1.54201 19.5067 -11.0328 0.000490555 1 
246 1 -2.83484 22.0582 -11.209 0.000558955 1 
247 1 -1.3489 24.4584 -10.7545 0.000542091 1 
248 1 -1.93638 22.7226 -8.5507 0.00487875 1 
249 1 -0.452595 25.1186 -8.10613 0.00417418 1 
250 1 -3.23688 25.2618 -8.74097 0.00259685 1 
251 1 -1.74468 27.6653 -8.31136 0.00789743 1 
252 1 -2.35043 25.93 -6.10971 0.0548979 1 
253 1 -0.820822 28.3463 -5.73316 0.0705767 1 
254 1 -3.63466 28.4683 -6.27972 0.0658227 1 
255 1 -2.11053 30.902 -5.8661 0.061496 1 
256 1 -2.74667 29.2032 -3.76002 5.28236 5 
257 1 -1.13887 31.6278 -3.29422 6.12488 5 
258 1 -3.91903 31.6832 -3.68798 0.568387 1 
259 1 -2.43065 34.1579 -3.30057 0.306973 1 
260 1 5.35841 0.0569284 -0.61827 7.74195 5 
261 1 -4.3489 34.9441 -1.41389 10.5763 5 
278 1 78.2875 11.4975 -14.406 0.000202826 1 
279 1 -2.62919 13.8991 -13.9481 0.000201418 1 
280 1 76.9945 14.0451 -14.5976 8.93549e-05 1 
281 1 78.4825 16.4484 -14.1372 9.12992e-05 1 
282 1 77.8929 14.6973 -11.9491 0.00036054 1 
283 1 -3.02508 17.1024 -11.4903 0.000348927 1 
284 1 76.5971 17.2488 -12.1383 0.00023489 1 
285 1 78.0837 19.6546 -11.6733 0.000266872 1 
286 1 77.4982 17.9092 -9.49455 0.00153735 1 
287 1 -3.42435 20.3174 -9.02385 0.00125822 1 
288 1 76.1979 20.4579 -9.66389 0.00117055 1 
289 1 77.6853 22.8603 -9.19936 0.000704439 1 
290 1 77.0961 21.1244 -7.00145 0.0140793 1 
291 1 -3.82115 23.5123 -6.54313 0.0178096 1 
292 1 75.7886 23.6577 -7.20648 0.0121039 1 
293 1 -5.11494 26.0806 -6.71247 0.0291013 1 
294 1 76.6738 24.3134 -4.62531 0.211 1 
295 1 -4.21331 26.7586 -3.997 1.84494 5 
296 1 75.4065 26.8907 -4.69844 0.103498 1 
297 1 -5.50066 29.277 -4.09848 0.418294 1 
298 1 76.1655 27.5953 -1.8994 5.0431 5 
299 1 -4.4085 29.8776 -1.2474 6.81481 5 
300 1 75.054 30.1507 -2.1381 0.827026 5 
301 1 -5.75184 32.479 -1.86815 5.66664 5 
312 1 76.7976 9.09542 -14.8676 0.000150991 1 
315 1 74.9134 9.88776 -12.8724 0.000356739 1 
316 1 76.4044 12.2929 -12.4093 0.000313865 1 
317 1 73.6191 12.435 -13.0696 0.000252753 1 
318 1 75.1088 14.8423 -12.6041 0.000217843 1 
319 1 74.5201 13.088 -10.4261 0.00085066 1 
320 1 76.0078 15.4979 -9.96124 0.00140247 1 
321 1 73.2207 15.6413 -10.6134 0.000602309 1 
322 1 74.7101 18.05 -10.1383 0.000475634 1 
323 1 74.1147 16.3022 -7.97105 0.00388541 1 
324 1 75.6119 18.7155 -7.49232 0.00454527 1 
325 1 72.8173 18.8442 -8.13203 0.00158079 1 
326 1 74.3016 21.2486 -7.65703 0.00233347 1 
327 1 73.7117 19.4855 -5.47211 0.0293469 1 
328 1 75.1763 21.9087 -5.01327 0.0433428 1 
329 1 72.405 22.0484 -5.64428 0.0218474 1 
330 1 73.8734 24.4449 -5.1944 0.0677859 1 
331 1 73.2809 22.7228 -2.94029 1.74798 5 
332 1 74.6882 25.1821 -2.65388 5.44553 5 
333 1 71.9577 25.2184 -3.04059 0.443852 1 
334 1 73.4397 27.6582 -2.66841 0.561514 1 
335 1 73.1538 31.231 -0.360979 6.60703 5 
344 1 71.9249 5.07968 -13.8005 0.000170529 1 
345 1 73.4191 7.48299 -13.3363 0.00023313 1 
346 1 70.631 7.6228 -13.9944 0.000132713 1 
347 1 72.126 10.0279 -13.5332 0.0002329 1 
348 1 71.5297 8.26824 -11.3513 0.000581349 1 
349 1 73.0275 10.6767 -10.8915 0.000999937 1 
350 1 70.2351 10.8159 -11.5532 0.000833007 1 
351 1 71.731 13.2291 -11.0875 0.000905083 1 
352 1 71.1361 11.4656 -8.92941 0.00440494 1 
353 1 72.6322 13.8888 -8.45313 0.00393308 1 
354 1 69.8409 14.0243 -9.10536 0.00238645 1 
355 1 71.3298 16.4405 -8.6136 0.00254707 1 
356 1 70.7448 14.696 -6.4675 0.015628 1 
357 1 72.2176 17.102 -5.94062 0.0247483 1 
358 1 69.4283 17.2291 -6.61308 0.00723531 1 
359 1 70.9095 19.6261 -6.14039 0.0115051 1 
360 1 70.2909 17.8681 -3.93071 0.0784754 1 
361 1 71.7911 20.2727 -3.56052 0.205859 1 
362 1 68.9782 20.3946 -4.14278 0.0899557 1 
363 1 70.4911 22.8402 -3.64492 0.117953 1 
364 1 69.7794 21.125 -1.61863 5.76208 5 
365 1 68.4813 23.5951 -1.58911 0.665798 1 
366 1 70.1042 26.0197 -1.08762 1.62343 5 
368 1 68.9375 0.272018 -14.7356 6.89772e-05 1 
369 1 70.4311 2.67629 -14.2676 9.74152e-05 1 
370 1 67.6422 2.81708 -14.92 6.64545e-05 1 
371 1 69.1364 5.21966 -14.4559 9.23578e-05 1 
372 1 68.5387 3.46116 -12.2745 0.000209782 1 
373 1 70.0337 5.86413 -11.81 0.000371197 1 
374 1 67.2421 6.00327 -12.4672 0.000194366 1 
375 1 68.7378 8.40734 -12.0102 0.000389545 1 
376 1 68.1368 6.64275 -9.82905 0.000787642 1 
377 1 69.634 9.04915 -9.38043 0.00212931 1 
378 1 66.8392 9.1888 -10.0295 0.00108902 1 
379 1 68.3392 11.6027 -9.57738 0.00215897 1 
380 1 67.7289 9.83015 -7.41756 0.006999 1 
381 1 69.239 12.2575 -6.97306 0.0125634 1 
382 1 66.4407 12.3836 -7.58928 0.00216025 1 
383 1 67.9477 14.8086 -7.11669 0.00411967 1 
384 1 67.3424 13.0284 -4.98631 0.0255051 1 
385 1 68.8469 15.4817 -4.47643 0.0559715 1 
386 1 66.0568 15.5672 -5.12578 0.0226822 1 
387 1 67.5212 18.0035 -4.58419 0.0344644 1 
388 1 66.9139 16.1998 -2.48321 0.215196 1 
389 1 68.3968 18.6709 -1.86352 1.97096 5 
390 1 65.6008 18.7723 -2.59916 0.097084 1 
391 1 67.0391 21.1574 -1.99122 0.377037 1 
393 1 67.0454 1.05738 -12.7426 0.000162282 1 
394 1 64.2551 1.19952 -13.3933 9.17238e-05 1 
395 1 65.7481 3.60143 -12.9284 0.000117341 1 
396 1 65.1502 1.83887 -10.7513 0.000392392 1 
397 1 66.641 4.24065 -10.2857 0.000426548 1 
398 1 63.8498 4.38262 -10.9374 0.000304803 1 
399 1 65.3427 6.78291 -10.4803 0.000582593 1 
400 1 64.7342 5.01418 -8.29831 0.00198442 1 
401 1 66.2316 7.41646 -7.85493 0.00288566 1 
402 1 63.4391 7.55936 -8.48714 0.00352635 1 
403 1 64.9392 9.96702 -8.03883 0.00199256 1 
404 1 64.3229 8.18747 -5.87255 0.0238384 1 
405 1 65.8297 10.6156 -5.42009 0.010215 1 
406 1 63.0481 10.7211 -6.02252 0.0169995 1 
407 1 64.55 13.1483 -5.58138 0.01088 1 
408 1 63.9438 11.3585 -3.37747 0.077458 1 
409 1 65.4793 13.7643 -2.93605 0.191962 1 
410 1 62.6608 13.9205 -3.62064 0.038825 1 
411 1 64.1615 16.3347 -3.19878 0.12677 1 
412 1 63.6583 14.5076 -1.07973 3.30005 5 
413 1 62.3593 1.98266 -11.4017 0.000165409 1 
414 1 61.7619 0.214522 -9.23179 0.000223439 1 
415 1 63.2509 2.61604 -8.76078 0.00129204 1 
416 1 60.4614 2.76452 -9.40863 0.000873611 1 
417 1 61.9477 5.16229 -8.94263 0.00181991 1 
418 1 61.3493 3.39266 -6.77138 0.0110673 1 
419 1 62.8184 5.78678 -6.3033 0.0289321 1 
420 1 60.0537 5.94457 -6.9188 0.0182409 1 
421 1 61.5413 8.31405 -6.45149 0.0319997 1 
422 1 60.9113 6.53049 -4.17054 0.248933 1 
423 1 62.4425 8.91626 -3.78814 0.159983 1 
424 1 59.6636 9.09009 -4.48349 0.0240988 1 
425 1 61.1754 11.4796 -4.06598 0.0333308 1 
426 1 60.5956 9.69513 -1.84712 0.261852 1 
427 1 62.0591 12.1471 -1.47051 0.239457 1 
428 1 59.2684 12.2562 -2.19878 0.227891 1 
429 1 60.7981 14.6994 -1.56692 1.73487 5 
430 1 58.9716 0.364484 -9.87679 0.000454384 1 
431 1 59.8627 0.989594 -7.24511 0.00303291 1 
432 1 57.0801 1.1519 -7.88713 0.00141643 1 
433 1 58.5755 3.55094 -7.39912 0.00754072 1 
434 1 57.975 1.7708 -5.24743 0.00877337 1 
435 1 59.4769 4.18082 -4.72942 0.196924 1 
436 1 56.6774 4.32168 -5.43915 0.0156303 1 
437 1 58.1635 6.72908 -4.91678 0.0480335 1 
438 1 57.5725 4.95502 -2.84447 0.559039 1 
439 1 59.0554 7.35132 -2.19617 0.555565 1 
440 1 56.2271 7.46717 -2.92673 0.135272 1 
441 1 57.7527 9.83815 -2.544 0.115584 1 
442 1 55.1807 1.93422 -5.90637 0.0107184 1 
443 1 54.5738 0.178341 -3.75591 0.284036 1 
444 1 56.0556 2.52141 -3.28946 0.0900047 1 
445 1 53.278 2.69414 -3.88273 0.105107 1 
446 1 54.7708 5.06134 -3.48773 0.19295 1 
447 1 54.1545 3.23717 -1.22291 5.68082 5 
448 1 52.7521 5.85771 -1.73021 9.05471 5 
449 1 54.2328 8.14757 -0.955593 5.44454 5 
450 1 51.8138 0.321203 -4.22658 5.78873 5 
451 1 49.9985 1.1484 -2.20562 8.96195 5 
452 1 51.3994 3.52981 -1.89998 8.58906 5 
458 1 -0.752673 26.2028 -12.9502 0.000154886 1 
459 1 -2.04462 28.752 -13.1314 0.000259645 1 
460 1 -0.553873 31.1544 -12.6803 0.000382705 1 
461 1 -1.14861 29.4087 -10.4967 0.00151001 1 
462 1 -2.43834 31.9599 -10.6608 0.00110757 1 
463 1 -0.951846 34.3621 -10.2053 0.00115309 1 
464 1 -1.53166 32.6332 -8.0129 0.00786926 1 
490 1 -3.72948 21.4013 -13.8597 0.000118479 1 
491 1 -2.24196 23.8026 -13.4021 0.000139661 1 
492 1 77.3831 23.9489 -14.0411 7.90899e-05 1 
493 1 -3.53408 26.3506 -13.5838 0.000134741 1 
494 1 -4.12894 24.6042 -11.3911 0.00020109 1 
495 1 -2.64153 27.0053 -10.9395 0.000775565 1 
496 1 76.9856 27.1513 -11.5703 0.000497411 1 
497 1 -3.9303 29.5544 -11.1157 0.00082988 1 
498 1 -4.52741 27.811 -8.91802 0.00376935 1 
499 1 -3.03125 30.2163 -8.4753 0.00747536 1 
500 1 -5.80449 30.3561 -9.08541 0.00786733 1 
501 1 -4.31217 32.7576 -8.63283 0.0077935 1 
502 1 -4.8865 31.0076 -6.399 0.0754076 1 
503 1 -3.39885 33.4228 -5.96312 0.0505516 1 
504 1 -6.17605 33.5589 -6.65439 0.0196608 1 
505 1 -5.2565 34.2352 -4.03065 0.10611 1 
528 1 75.7 16.5946 -14.785 6.09784e-05 1 
529 1 77.1881 18.9984 -14.3215 7.37287e-05 1 
530 1 74.4058 19.1432 -14.9674 5.67139e-05 1 
531 1 75.8948 21.5464 -14.5028 5.72438e-05 1 
532 1 75.3017 19.7977 -12.3172 0.000185087 1 
533 1 76.7894 22.2015 -11.8518 0.000108674 1 
534 1 74.008 22.3428 -12.4983 7.83308e-05 1 
535 1 75.4981 24.7474 -12.0321 0.000231096 1 
536 1 74.9007 22.9987 -9.84587 0.000501611 1 
537 1 76.3933 25.4077 -9.37582 0.00172637 1 
538 1 73.6158 25.5432 -10.0249 0.000908282 1 
539 1 75.1095 27.9533 -9.54717 0.00498624 1 
540 1 74.5125 26.2064 -7.36232 0.00572624 1 
541 1 76.0105 28.6242 -6.85822 0.0393066 1 
542 1 73.2344 28.7416 -7.54652 0.00936246 1 
543 1 74.7299 31.1505 -7.0927 0.00832348 1 
544 1 74.1314 29.413 -4.85482 0.0619722 1 
545 1 75.6679 31.8099 -4.44807 0.068055 1 
546 1 72.839 31.9621 -5.1547 0.0341033 1 
547 1 74.3624 34.3885 -4.72322 0.0963407 1 
548 1 73.7687 32.6571 -2.62217 5.5972 5 
569 1 72.323 14.9853 -13.2569 0.000185855 1 
570 1 73.8129 17.3924 -12.7867 0.0001311 1 
571 1 71.0277 17.5332 -13.4365 0.000107655 1 
572 1 72.5182 19.9385 -12.966 9.34685e-05 1 
573 1 71.9235 18.1881 -10.7866 0.000237809 1 
574 1 73.4126 20.5935 -10.313 0.000214573 1 
575 1 70.629 20.7303 -10.9647 0.000273066 1 
576 1 72.12 23.1356 -10.4942 0.000358785 1 
577 1 71.5202 21.3849 -8.30716 0.00123021 1 
578 1 73.0063 23.7919 -7.83795 0.00302801 1 
579 1 70.2322 23.9235 -8.4866 0.00497324 1 
580 1 71.7339 26.3293 -8.0267 0.00740731 1 
581 1 71.1137 24.5852 -5.80138 0.0430881 1 
582 1 72.6269 26.9755 -5.34708 0.0696472 1 
583 1 69.8409 27.1008 -6.07688 0.0278249 1 
584 1 71.3518 29.5346 -5.60786 0.0202154 1 
585 1 70.6989 27.7476 -3.47118 0.228569 1 
586 1 72.2475 30.2409 -2.95749 0.286856 1 
587 1 69.4421 30.3464 -3.72598 0.101671 1 
588 1 70.9203 32.7903 -3.17189 2.71708 5 
589 1 70.332 31.0867 -1.1366 10.1862 5 
590 1 68.9265 33.5338 -0.894953 5.17978 5 
605 1 69.336 10.1694 -14.1875 0.000176565 1 
606 1 70.8308 12.5769 -13.7246 0.000228074 1 
607 1 68.0413 12.7182 -14.3735 0.000127998 1 
608 1 69.5357 15.1261 -13.9068 0.000130559 1 
609 1 68.94 13.3675 -11.7378 0.000505632 1 
610 1 70.4338 15.78 -11.2636 0.000464409 1 
611 1 67.6449 15.9152 -11.9133 0.00023098 1 
612 1 69.1371 18.3241 -11.4393 0.000212966 1 
613 1 68.5409 16.5694 -9.26882 0.000979313 1 
614 1 70.0284 18.978 -8.78751 0.000592366 1 
615 1 67.2426 19.1089 -9.44093 0.0005963 1 
616 1 68.7365 21.5151 -8.96488 0.000789074 1 
617 1 68.1221 19.7572 -6.7832 0.00398828 1 
618 1 69.6216 22.1678 -6.30495 0.0055967 1 
619 1 66.8404 22.2892 -6.96639 0.00652037 1 
620 1 68.3354 24.6931 -6.49519 0.0152925 1 
621 1 67.7139 22.921 -4.27951 0.0750289 1 
622 1 69.2005 25.3467 -3.80545 0.101936 1 
623 1 66.4281 25.4649 -4.55694 0.0241862 1 
624 1 67.9196 27.8818 -4.20171 0.120981 1 
625 1 67.3093 26.1633 -1.90546 0.613206 5 
626 1 68.7245 28.5721 -1.69245 6.43319 5 
627 1 66.0139 28.7113 -2.33863 5.54402 5 
628 1 67.5093 31.1732 -1.72814 7.91072 5 
638 1 67.8407 7.76459 -14.6473 9.41888e-05 1 
640 1 66.5456 10.3119 -14.8352 9.36052e-05 1 
641 1 65.9457 8.54899 -12.6584 0.000224846 1 
642 1 67.4425 10.9559 -12.2014 0.000408826 1 
643 1 64.6516 11.0969 -12.8431 0.000141601 1 
644 1 66.149 13.5048 -12.382 0.000190434 1 
645 1 65.5465 11.7385 -10.2117 0.00050255 1 
646 1 67.047 14.1532 -9.74835 0.000686482 1 
647 1 64.256 14.2856 -10.3896 0.000452969 1 
648 1 65.7529 16.699 -9.9188 0.000602144 1 
649 1 65.1539 14.9287 -7.75732 0.00228408 1 
650 1 66.6464 17.3498 -7.26754 0.00451247 1 
651 1 63.859 17.4784 -7.93139 0.00157836 1 
652 1 65.3458 19.8902 -7.43883 0.00522305 1 
653 1 64.7488 18.1287 -5.28662 0.014537 1 
654 1 66.2167 20.5362 -4.75015 0.0362968 1 
655 1 63.4357 20.6626 -5.44193 0.0206094 1 
656 1 64.9306 23.0461 -5.0057 0.0256072 1 
657 1 64.2988 21.2809 -2.73426 0.140222 1 
658 1 65.7522 23.6898 -2.38746 0.271469 1 
659 1 62.9814 23.8041 -3.12107 0.206012 1 
660 1 64.5383 26.2752 -2.6438 0.256848 1 
661 1 65.5226 27.2443 -0.082998 6.68515 5 
662 1 62.6121 27.0651 -0.752754 6.9161 5 
669 1 62.9572 3.74617 -13.5767 8.40108e-05 1 
670 1 64.4506 6.14651 -13.1159 0.000124194 1 
671 1 61.6602 6.29331 -13.7594 7.09613e-05 1 
672 1 63.1553 8.6933 -13.301 8.16799e-05 1 
673 1 62.5524 6.9286 -11.1215 0.000295413 1 
674 1 64.0483 9.32993 -10.6662 0.000479989 1 
675 1 61.2602 9.47474 -11.3042 0.000296436 1 
676 1 62.7576 11.8762 -10.8482 0.000465546 1 
677 1 62.1533 10.0997 -8.66274 0.00374287 1 
678 1 63.6522 12.5103 -8.21398 0.00201505 1 
679 1 60.8656 12.6531 -8.86133 0.000698832 1 
680 1 62.3626 15.0624 -8.40355 0.0008292 1 
681 1 61.7635 13.2805 -6.23405 0.00259765 1 
682 1 63.2592 15.7003 -5.78491 0.00741728 1 
683 1 60.4651 15.8381 -6.41736 0.00231426 1 
684 1 61.9601 18.2511 -5.94187 0.0039588 1 
685 1 61.3491 16.4597 -3.80242 0.0566763 1 
686 1 62.8397 18.9061 -3.29315 0.100657 1 
687 1 60.059 18.999 -3.94769 0.0491033 1 
688 1 61.5017 21.4075 -3.44597 0.0747053 1 
689 1 60.8518 19.5814 -1.2836 1.49307 5 
690 1 62.4414 22.0177 -0.808627 2.22495 5 
691 1 59.6618 22.1916 -1.44328 5.39265 5 
693 1 61.464 1.34584 -14.0398 6.82049e-05 1 
694 1 58.6729 1.49544 -14.6819 6.29891e-05 1 
695 1 60.1667 3.89453 -14.2203 6.33759e-05 1 
696 1 59.5687 2.132 -12.046 0.000164406 1 
697 1 61.06 4.53056 -11.5816 0.000236658 1 
698 1 58.2715 4.6824 -12.2219 0.000126156 1 
699 1 59.7641 7.07797 -11.7603 0.000166277 1 
700 1 59.1645 5.31525 -9.57753 0.00088161 1 
701 1 60.6554 7.70771 -9.11634 0.00208699 1 
702 1 57.8668 7.8617 -9.76061 0.000558952 1 
703 1 59.3657 10.2526 -9.31215 0.000878464 1 
704 1 58.758 8.48348 -7.11879 0.00354173 1 
705 1 60.2672 10.8701 -6.68568 0.00560077 1 
706 1 57.4686 11.0281 -7.32725 0.00479226 1 
707 1 58.9748 13.4313 -6.88064 0.00282607 1 
708 1 58.3723 11.6374 -4.73669 0.0292041 1 
709 1 59.8827 14.0657 -4.25298 0.0267335 1 
710 1 57.0828 14.2105 -4.90819 0.0168796 1 
711 1 58.5723 16.6193 -4.40266 0.0348718 1 
712 1 57.9858 14.8418 -2.29236 0.109883 1 
713 1 59.4598 17.1817 -1.68999 0.387627 1 
714 1 56.6686 17.3537 -2.42184 0.100551 1 
715 1 58.1327 19.6944 -2.06561 6.26515 5 
716 1 48.317 34.971 -13.145 0.000171607 1 
717 1 56.7784 2.2855 -12.6853 0.000123272 1 
718 1 56.181 0.52236 -10.5161 0.000460833 1 
719 1 57.6758 2.9202 -10.0485 0.000641938 1 
720 1 54.8822 3.07715 -10.6881 0.000558447 1 
721 1 56.3757 5.47116 -10.2233 0.000590124 1 
722 1 55.7798 3.70683 -8.0609 0.00301788 1 
723 1 57.2691 6.10055 -7.57882 0.00371933 1 
724 1 54.4745 6.25888 -8.22427 0.00220023 1 
725 1 55.9632 8.64527 -7.75786 0.00314838 1 
726 1 55.3573 6.87963 -5.58574 0.0160426 1 
727 1 56.8435 9.25467 -5.12301 0.0181476 1 
728 1 54.0548 9.44076 -5.74377 0.0638097 1 
729 1 55.5689 11.8037 -5.34298 0.0285057 1 
730 1 54.923 10.0276 -3.09796 0.311259 1 
731 1 56.4758 12.415 -2.78768 0.139495 1 
732 1 53.7173 12.5661 -3.30024 0.300329 1 
733 1 55.2073 14.9573 -2.90843 0.101235 1 
734 1 53.3246 15.722 -1.05349 7.09946 5 
735 1 54.9288 18.1459 -0.456268 5.34016 5 
736 1 53.388 0.682606 -11.1464 0.000607957 1 
737 1 54.2832 1.31639 -8.5221 0.00383164 1 
738 1 51.4919 1.4813 -9.1318 0.00259904 1 
739 1 52.9802 3.86446 -8.68235 0.00255305 1 
740 1 52.3774 2.09132 -6.48699 0.026917 1 
741 1 53.8707 4.48054 -6.07507 0.0182855 1 
742 1 51.0652 4.66259 -6.69532 0.0677269 1 
743 1 52.571 7.06129 -6.23163 0.122839 1 
744 1 51.9429 5.25975 -4.16516 6.7801 5 
745 1 53.4347 7.69642 -3.61586 0.543994 1 
746 1 50.701 7.80321 -3.96825 5.35071 5 
747 1 52.1572 10.2377 -3.5455 0.420433 1 
748 1 53.0645 10.7649 -0.686312 8.05596 5 
749 1 50.2294 11.1757 -1.54525 7.48612 5 
750 1 51.9759 13.3729 -1.30742 7.76478 5 
751 1 41.1598 34.9949 -7.5414 0.0195283 1 
752 1 49.598 2.26271 -7.09146 0.0389117 1 
753 1 49.0334 0.507597 -4.79357 0.43353 1 
754 1 50.4833 2.91204 -4.49232 0.08095 1 
755 1 47.737 3.11782 -5.12748 0.136767 1 
756 1 49.1824 5.51952 -4.57607 1.58293 5 
757 1 48.6731 3.84936 -2.47951 10.1022 5 
758 1 49.8706 6.00434 -0.739433 9.21654 5 
759 1 47.2934 6.31113 -2.18249 4.68765 5 
760 1 48.8216 8.67525 -1.9771 6.81864 5 
761 1 46.253 0.732996 -5.51239 0.0328851 1 
762 1 47.1862 1.44022 -2.91995 6.08641 5 
763 1 44.3447 1.57713 -3.48216 2.96389 5 
764 1 45.8432 3.97495 -3.14101 5.92196 5 
765 1 45.0905 7.44407 -0.456959 7.48995 5 
766 1 34.0393 35.0709 -2.07418 8.58731 5 
767 1 42.3443 2.34608 -1.15871 5.79557 5 
797 1 -3.33506 31.3015 -13.3072 0.000237534 1 
798 1 -1.84643 33.7036 -12.8516 0.000249047 1 
799 1 -4.62594 33.8496 -13.4854 0.000190417 1 
800 1 -3.7307 34.5052 -10.8339 0.000697967 1 
836 1 76.0921 26.4961 -14.2228 0.00013051 1 
837 1 -4.82451 28.8988 -13.7638 0.000193737 1 
838 1 74.8026 29.0432 -14.4063 0.000244349 1 
839 1 -6.11396 31.4466 -13.9451 0.00024267 1 
840 1 75.6996 29.6977 -11.7501 0.00117605 1 
841 1 -5.21649 32.1013 -11.2919 0.00110188 1 
842 1 74.4093 32.2448 -11.9427 0.000321343 1 
843 1 -6.50806 34.6512 -11.4776 0.000283689 1 
844 1 75.3122 32.901 -9.29317 0.00223501 1 
874 1 74.6031 24.0931 -14.6851 7.88214e-05 1 
876 1 73.3129 26.6395 -14.8696 0.000176093 1 
877 1 72.7186 24.8874 -12.6819 0.000247581 1 
878 1 74.2105 27.2933 -12.2138 0.000818715 1 
879 1 71.4297 27.4321 -12.8729 0.000385197 1 
880 1 72.9207 29.8387 -12.4073 0.000335266 1 
881 1 72.3317 28.0856 -10.2172 0.00171832 1 
882 1 73.8216 30.4933 -9.75107 0.00131026 1 
883 1 71.0378 30.6337 -10.4226 0.000835255 1 
884 1 72.5261 33.0453 -9.9518 0.00105171 1 
885 1 71.9389 31.2919 -7.77854 0.00383149 1 
886 1 73.4315 33.7085 -7.31865 0.0098935 1 
887 1 70.6344 33.8483 -7.96161 0.00344859 1 
888 1 71.533 34.5121 -5.33885 0.0440498 1 
916 1 69.7338 20.0781 -13.6172 0.000108336 1 
917 1 71.2259 22.4825 -13.1488 0.000125663 1 
918 1 68.4415 22.6215 -13.8027 0.000172822 1 
919 1 69.9356 25.0259 -13.3381 0.000249022 1 
920 1 69.3385 23.2708 -11.1497 0.000790084 1 
921 1 70.8347 25.6763 -10.6856 0.00115688 1 
922 1 68.0474 25.8112 -11.3525 0.000593327 1 
923 1 69.545 28.2209 -10.8911 0.00102542 1 
924 1 68.946 26.4559 -8.71064 0.00385041 1 
925 1 70.4494 28.8731 -8.25063 0.00449461 1 
926 1 67.6544 29.0095 -8.92883 0.00444603 1 
927 1 69.1507 31.4338 -8.44946 0.00393301 1 
928 1 68.5584 29.6678 -6.32265 0.0241378 1 
929 1 70.0448 32.105 -5.8084 0.0204363 1 
930 1 67.2632 32.2402 -6.46455 0.0156921 1 
931 1 68.7371 34.6468 -5.93237 0.0266171 1 
932 1 68.137 32.9091 -3.77214 0.102084 1 
953 1 66.7471 15.2661 -14.5547 7.57117e-05 1 
954 1 68.241 17.6726 -14.0867 8.69265e-05 1 
955 1 65.4532 17.8125 -14.7362 6.70244e-05 1 
956 1 66.9474 20.2172 -14.2694 9.42865e-05 1 
957 1 66.35 18.4596 -12.0911 0.000180332 1 
958 1 67.8438 20.8656 -11.6201 0.000271187 1 
959 1 65.056 21.0021 -12.2761 0.000200502 1 
960 1 66.5514 23.406 -11.8119 0.000363799 1 
961 1 65.9507 21.6465 -9.6265 0.000924461 1 
962 1 67.4476 24.0504 -9.1611 0.00204473 1 
963 1 64.6557 24.1847 -9.83089 0.000749502 1 
964 1 66.1526 26.5921 -9.38154 0.00213452 1 
965 1 65.5472 24.8216 -7.1948 0.00354612 1 
966 1 67.0453 27.2334 -6.77036 0.0153707 1 
967 1 64.2481 27.3732 -7.41879 0.00700696 1 
968 1 65.7574 29.8013 -6.97254 0.0125162 1 
969 1 65.1288 28.0225 -4.84352 0.061327 1 
970 1 66.6745 30.4754 -4.39425 0.0882532 1 
971 1 63.8605 30.5722 -4.98578 0.0252774 1 
972 1 65.3643 33.0252 -4.47448 0.0557689 1 
973 1 64.7501 31.2562 -2.44666 5.63761 5 
974 1 66.1941 33.647 -1.71306 2.66923 5 
975 1 63.4303 33.7428 -2.48242 0.21884 1 
995 1 63.3591 13.6445 -13.0254 0.000120554 1 