ITEM: TIMESTEP
0
ITEM: NUMBER OF ATOMS
22983
ITEM: BOX BOUNDS xy xz yz pp pp ss
-338.825758606 329.670995084 -338.825758606
0 39.033771338 0
-98.80190892029367 101.2341032224119 0
ITEM: ATOMS id type x y z c_csym c_cna 
4 1 -0.305668 13.6667 -14.8719 7.81402e-05 1 
5 1 -0.351683 15.7439 -11.4165 0.00028364 1 
6 1 -0.166884 18.5179 -10.7341 0.00064019 1 
7 1 -0.383951 17.8123 -7.97621 0.00283856 1 
8 1 -0.18941 20.6012 -7.31742 0.0143561 1 
9 1 -0.365405 19.8629 -4.60588 0.101408 1 
10 1 -0.281993 22.6742 -3.962 0.136244 1 
11 1 -0.680302 21.9121 -1.29266 7.02928 5 
12 1 -0.70526 24.7785 -0.455127 2.62602 5 
23 1 -0.70997 10.209 -12.7916 0.000342293 1 
24 1 -0.533571 12.9744 -12.1016 0.00023243 1 
25 1 -0.767803 12.2769 -9.33022 0.000922728 1 
26 1 -0.579292 15.0432 -8.65251 0.000720804 1 
27 1 -0.804894 14.3412 -5.89377 0.025604 1 
28 1 -0.599472 17.081 -5.20712 0.0288684 1 
29 1 -0.864325 16.3566 -2.39821 0.318619 1 
30 1 -0.590844 19.1256 -1.92883 0.49123 1 
36 1 -1.04885 4.6771 -14.2011 0.000201198 1 
37 1 -0.880166 7.44546 -13.4931 0.000238979 1 
38 1 -1.109 6.75928 -10.7193 0.00143428 1 
39 1 -0.945429 9.51536 -10.0136 0.0015286 1 
40 1 -1.19143 8.81476 -7.22592 0.00700201 1 
41 1 -1.02107 11.571 -6.55652 0.00652565 1 
42 1 -1.30928 10.8353 -3.77694 0.0663413 1 
43 1 -1.10588 13.6284 -3.21148 0.257341 1 
44 1 -1.38436 12.8766 -0.630975 8.68757 5 
45 1 -1.22119 1.90299 -14.9016 0.000175269 1 
46 1 -1.44037 1.21514 -12.1422 0.000746928 1 
47 1 -1.27001 3.9929 -11.4403 0.00109635 1 
48 1 -1.48399 3.30705 -8.68906 0.00665425 1 
49 1 -1.33875 6.07224 -7.93601 0.00999383 1 
50 1 -1.55556 5.38773 -5.12113 0.180381 1 
51 1 -1.45837 8.11373 -4.45114 6.67609 5 
52 1 -0.748111 6.99845 -0.553787 8.09338 5 
53 1 -1.59662 9.98386 -0.965264 11.7745 5 
54 1 -1.65238 0.521237 -9.3904 0.00332593 1 
55 1 -1.67656 2.61112 -5.95606 0.0468702 1 
56 1 -1.80889 1.84139 -3.26846 4.04688 5 
57 1 -1.5583 4.55654 -2.25799 2.92089 5 
225 1 -330.164 38.4187 -13.2255 0.000125527 1 
283 1 -0.849842 32.872 -14.618 5.48929e-05 1 
284 1 -0.671736 35.644 -13.9221 6.06228e-05 1 
285 1 -2.88971 34.0692 -13.013 0.000111008 1 
286 1 -2.7072 36.8416 -12.3193 0.000166346 1 
287 1 -0.893969 34.9547 -11.1532 0.000193758 1 
288 1 -0.710388 37.7294 -10.4569 0.000535829 1 
289 1 -2.92636 36.1479 -9.55288 0.000654599 1 
290 1 -332.406 38.9262 -8.86662 0.00257167 1 
291 1 -0.924837 37.0339 -7.68378 0.00527519 1 
292 1 -2.93628 38.2232 -6.12019 0.0166085 1 
349 1 -3.24518 28.5332 -14.4077 0.000117541 1 
350 1 -3.06961 31.2999 -13.7077 0.000128433 1 
351 1 -1.25247 29.4158 -12.5461 0.000232339 1 
352 1 -1.07566 32.1832 -11.8493 0.000220526 1 
353 1 -3.3014 30.6095 -10.9381 0.00056458 1 
354 1 -3.11685 33.3772 -10.2461 0.000386854 1 
355 1 -1.30701 31.491 -9.08578 0.00150641 1 
356 1 -1.11848 34.2627 -8.38609 0.000819224 1 
357 1 -3.35004 32.6818 -7.48356 0.00385835 1 
358 1 -3.14698 35.4478 -6.78515 0.00510829 1 
359 1 -1.34404 33.5776 -5.62428 0.0267492 1 
360 1 -1.12965 36.3246 -4.89367 0.1204 1 
361 1 -3.35195 34.766 -3.98717 0.198906 1 
362 1 -3.12074 37.4936 -3.3752 0.205496 1 
363 1 -1.16573 35.6663 -1.90579 4.90336 5 
364 1 -330.768 38.4919 -1.66125 5.69416 5 
412 1 -1.59531 23.8785 -13.9583 0.000331579 1 
413 1 -1.42436 26.6497 -13.2521 0.000257781 1 
414 1 -3.64454 25.0815 -12.3532 0.0006859 1 
415 1 -3.47594 27.8474 -11.6403 0.000523179 1 
416 1 -1.65132 25.9663 -10.4946 0.00135359 1 
417 1 -1.48474 28.7269 -9.77753 0.00130045 1 
418 1 -3.71424 27.1601 -8.87351 0.00276393 1 
419 1 -3.54528 29.9139 -8.16768 0.00275921 1 
420 1 -1.73111 28.0327 -7.00717 0.010602 1 
421 1 -1.5542 30.7935 -6.33779 0.0119593 1 
422 1 -3.80651 29.2092 -5.38945 0.0284753 1 
423 1 -3.61595 31.9712 -4.73851 0.0381675 1 
424 1 -1.82635 30.0889 -3.61353 0.103884 1 
425 1 -1.62358 32.8833 -2.93995 0.453256 1 
426 1 -3.92266 31.1792 -2.01297 4.95273 5 
427 1 -3.70021 33.9686 -1.30478 0.865409 1 
428 1 -1.93424 31.9953 -0.35139 8.74237 5 
467 1 -1.76859 21.1027 -14.6564 0.000210852 1 
468 1 -3.98668 19.5282 -13.749 0.000239252 1 
469 1 -3.81311 22.3062 -13.0586 0.000651953 1 
470 1 -1.98832 20.4124 -11.9014 0.000708593 1 
471 1 -1.81678 23.1935 -11.208 0.00163233 1 
472 1 -4.03424 21.6162 -10.3152 0.00320422 1 
473 1 -3.87372 24.3986 -9.60467 0.00407476 1 
474 1 -2.03698 22.5042 -8.48033 0.00906417 1 
475 1 -1.88242 25.2834 -7.75429 0.00841063 1 
476 1 -4.10332 23.7125 -6.87603 0.0306354 1 
477 1 -3.96034 26.4644 -6.10285 0.0228669 1 
478 1 -2.12914 24.6057 -5.04819 0.0993808 1 
479 1 -2.02235 27.3303 -4.21934 0.0994625 1 
480 1 -4.25542 25.7675 -3.27604 4.34038 5 
481 1 -4.15625 28.4286 -2.56549 4.65933 5 
482 1 -2.41808 26.5874 -1.35262 5.59719 5 
483 1 -2.10142 29.2807 -0.963927 10.6044 5 
513 1 -4.16408 16.7541 -14.4345 0.00012315 1 
514 1 -2.34805 14.8634 -13.2685 0.000184793 1 
515 1 -2.16749 17.6351 -12.5845 0.000228665 1 
516 1 -4.39031 16.0597 -11.6686 0.00034421 1 
517 1 -4.20747 18.8329 -10.9919 0.000781261 1 
518 1 -2.3905 16.9357 -9.82297 0.000557339 1 
519 1 -2.20286 19.7132 -9.15438 0.00280993 1 
520 1 -4.42403 18.1261 -8.23282 0.00448062 1 
521 1 -4.24716 20.9144 -7.59155 0.0179742 1 
522 1 -2.40528 18.9956 -6.41019 0.0164804 1 
523 1 -2.24453 21.798 -5.79255 0.064114 1 
524 1 -4.43187 20.1787 -4.89353 0.0799322 1 
525 1 -4.29538 22.9886 -4.18947 0.396627 1 
526 1 -2.40607 20.9666 -3.163 0.562706 1 
527 1 -2.36094 23.823 -2.44448 5.02342 5 
528 1 -4.2711 21.9553 -1.52902 8.95328 5 
529 1 -3.69627 24.134 -0.113193 6.61789 5 
550 1 -2.69859 9.33036 -14.6516 0.000204797 1 
551 1 -2.52554 12.0958 -13.9565 0.000156793 1 
552 1 -4.74501 10.5289 -13.0382 0.000364336 1 
553 1 -4.57112 13.2921 -12.3478 0.000459898 1 
554 1 -2.75802 11.4033 -11.1819 0.000453246 1 
555 1 -2.57788 14.1666 -10.4998 0.000566735 1 
556 1 -4.80915 12.5952 -9.56897 0.00201796 1 
557 1 -4.62076 15.3583 -8.90328 0.00127027 1 
558 1 -2.81583 13.4633 -7.72998 0.00364244 1 
559 1 -2.61715 16.2255 -7.05981 0.0026699 1 
560 1 -4.86386 14.6494 -6.14287 0.0111519 1 
561 1 -4.64164 17.398 -5.45736 0.0374176 1 
562 1 -2.86327 15.5012 -4.29604 0.0394217 1 
563 1 -2.61134 18.2133 -3.66667 0.120732 1 
564 1 -4.87952 16.6535 -2.63116 0.390061 1 
565 1 -4.6008 19.3725 -2.21671 5.315 5 
577 1 -5.08248 4.99859 -14.4507 0.000225494 1 
578 1 -4.91374 7.76633 -13.7408 0.000264651 1 
579 1 -3.09361 5.88102 -12.5873 0.000450935 1 
580 1 -2.92871 8.64233 -11.873 0.00122619 1 
581 1 -5.14111 7.08343 -10.9628 0.00133714 1 
582 1 -4.981 9.83865 -10.2567 0.00143574 1 
583 1 -3.16475 7.95042 -9.08119 0.00844192 1 
584 1 -3.00119 10.7063 -8.40564 0.00230251 1 
585 1 -5.23278 9.14558 -7.46905 0.00768185 1 
586 1 -5.06838 11.8928 -6.77976 0.0104618 1 
587 1 -3.27149 10.0063 -5.63776 0.0193956 1 
588 1 -3.09013 12.7442 -4.96525 0.020173 1 
589 1 -5.36412 11.182 -3.97283 0.097235 1 
590 1 -5.12578 13.9743 -3.39998 0.197471 1 
591 1 -3.41181 12.0209 -2.19471 6.40621 5 
592 1 -3.08615 14.8669 -1.44484 0.794831 1 
593 1 -5.35377 13.4141 -0.769182 9.51779 5 
597 1 326.234 0.332089 -13.9921 0.000227771 1 
598 1 -3.2618 3.10917 -13.2977 0.000521369 1 
599 1 -5.47446 1.54107 -12.3932 0.00087963 1 
600 1 -5.30329 4.31924 -11.6875 0.00123976 1 
601 1 -3.4778 2.42533 -10.5439 0.00285076 1 
602 1 -3.31512 5.20004 -9.81837 0.00291193 1 
603 1 -5.51443 3.6447 -8.93489 0.00897696 1 
604 1 -5.36962 6.40122 -8.17523 0.0113716 1 
605 1 -3.51814 4.52293 -7.04916 0.0217125 1 
606 1 -3.41412 7.25397 -6.26883 0.0998577 1 
607 1 -5.54884 5.72524 -5.35052 0.117499 1 
608 1 -5.50381 8.4462 -4.66017 0.140278 1 
609 1 -3.52635 6.55367 -3.2836 6.01413 5 
610 1 -3.56625 9.33697 -2.88189 6.09195 5 
611 1 -5.87275 7.74178 -1.88512 7.52449 5 
612 1 -5.63941 10.4251 -0.973796 9.58708 5 
613 1 -3.57093 7.91375 -0.597101 13.3415 5 
614 1 -5.68887 0.857004 -9.64342 0.00416578 1 
615 1 -3.67935 1.73858 -7.8087 0.0164345 1 
616 1 323.777 0.168162 -6.91256 0.0204428 1 
617 1 -5.70273 2.9798 -6.21876 0.0758669 1 
618 1 -3.85554 1.03556 -5.10895 0.0951825 1 
619 1 -3.66988 3.83686 -4.29192 0.228416 1 
620 1 -5.86968 2.27155 -3.60028 0.607509 1 
621 1 -5.64954 4.96522 -2.52644 2.00852 5 
622 1 -3.73714 2.90574 -1.67531 6.75486 5 
623 1 -3.15265 5.2435 -0.155997 3.73898 5 
624 1 325.699 0.224872 -2.44219 4.90531 5 
625 1 -5.95768 1.33552 -1.09194 8.78846 5 
1146 1 -334.194 38.7301 -13.4846 0.000152797 1 
1212 1 -4.88436 33.1857 -14.8701 7.15278e-05 1 
1213 1 -4.70394 35.9564 -14.1772 8.10981e-05 1 
1214 1 -6.92496 34.3827 -13.2636 0.000167802 1 
1215 1 -6.74098 37.1541 -12.5755 0.000179729 1 
1216 1 -4.92769 35.2644 -11.4101 0.000247029 1 
1217 1 -4.74 38.0375 -10.7218 0.000503546 1 
1218 1 -6.96233 36.4572 -9.81069 0.000494124 1 
1219 1 -4.95338 37.3348 -7.96053 0.00229724 1 
1220 1 -6.96514 38.5178 -6.38334 0.0120498 1 
1278 1 -7.28254 28.8493 -14.6521 0.000191547 1 
1279 1 -7.10608 31.6151 -13.9548 0.000150159 1 
1280 1 -5.29284 29.73 -12.7944 0.000338505 1 
1281 1 -5.11299 32.4954 -12.1 0.000218236 1 
1282 1 -7.34009 30.9249 -11.1806 0.000422793 1 
1283 1 -7.15489 33.6884 -10.4937 0.00054052 1 
1284 1 -5.34806 31.8007 -9.32931 0.00085384 1 
1285 1 -5.15457 34.5666 -8.64489 0.000700423 1 
1286 1 -7.39251 32.9888 -7.7229 0.00339759 1 
1287 1 -7.18675 35.7513 -7.04439 0.00275399 1 
1288 1 -5.38015 33.8698 -5.88523 0.0235804 1 
1289 1 -5.16519 36.6124 -5.18808 0.0222089 1 
1290 1 -7.42866 35.0384 -4.27599 0.0353735 1 
1291 1 -7.15144 37.7633 -3.62199 0.101404 1 
1292 1 -5.42369 35.8975 -2.38212 0.272206 1 
1293 1 -334.782 38.685 -1.88324 0.640578 1 
1342 1 -5.63599 24.1961 -14.208 0.000302246 1 
1343 1 -5.46595 26.9658 -13.4992 0.000280533 1 
1344 1 -7.68373 25.4005 -12.5913 0.000525871 1 
1345 1 -7.51554 28.1632 -11.8755 0.0011003 1 
1346 1 -5.69876 26.2819 -10.7308 0.00155126 1 
1347 1 -5.53076 29.0393 -10.0196 0.00152795 1 
1348 1 -7.75437 27.4737 -9.08645 0.00773655 1 
1349 1 -7.58452 30.2308 -8.40516 0.00204629 1 
1350 1 -5.77923 28.3424 -7.23646 0.00685565 1 
1351 1 -5.60187 31.0981 -6.55695 0.00593941 1 
1352 1 -7.85498 29.5337 -5.63738 0.0178953 1 
1353 1 -7.66427 32.2741 -4.95777 0.0196238 1 
1354 1 -5.88898 30.3656 -3.77885 0.0662998 1 
1355 1 -5.67733 33.1613 -3.20237 0.251404 1 
1356 1 -7.98121 31.5487 -2.18738 6.33407 5 
1357 1 -7.64782 34.4083 -1.42667 0.830455 1 
1358 1 -5.95395 32.4082 -0.62324 8.66302 5 
1397 1 -5.80754 21.4208 -14.9076 0.000253969 1 
1398 1 -8.02517 19.8498 -13.9953 0.000281144 1 
1399 1 -7.85257 22.6274 -13.3016 0.000603035 1 
1400 1 -6.03034 20.7324 -12.1534 0.00105494 1 
1401 1 -5.86163 23.5127 -11.4531 0.00142517 1 
1402 1 -8.0724 21.9435 -10.551 0.00299089 1 
1403 1 -7.90893 24.7207 -9.82578 0.00308294 1 
1404 1 -6.08124 22.827 -8.7088 0.00770292 1 
1405 1 -5.93335 25.5974 -7.95434 0.010072 1 
1406 1 -8.11281 24.0435 -7.05895 0.0231913 1 
1407 1 -8.00441 26.779 -6.27731 0.10733 1 
1408 1 -6.15353 24.9131 -5.14728 0.214557 1 
1409 1 -6.0487 27.646 -4.46688 6.59255 5 
1410 1 -8.09668 26.0705 -3.28647 6.05755 5 
1411 1 -8.14159 28.86 -2.87894 6.04069 5 
1412 1 -5.30889 26.496 -0.550457 8.05659 5 
1413 1 -6.17259 29.5062 -0.963816 11.7898 5 
1414 1 -8.13525 27.4226 -0.599988 14.0605 5 
1445 1 -8.20026 17.0754 -14.6806 0.000127431 1 
1446 1 -6.38471 15.1832 -13.5153 0.00024962 1 
1447 1 -6.20626 17.9548 -12.8344 0.00026038 1 
1448 1 -8.42708 16.3852 -11.9115 0.000377478 1 
1449 1 -8.2476 19.1598 -11.2368 0.000905187 1 
1450 1 -6.43006 17.2582 -10.0714 0.000711964 1 
1451 1 -6.24736 20.0365 -9.40871 0.00462986 1 
1452 1 -8.46416 18.4628 -8.47814 0.00360327 1 
1453 1 -8.27487 21.256 -7.81785 0.016219 1 
1454 1 -6.45057 19.3256 -6.67098 0.0180375 1 
1455 1 -6.27596 22.1283 -5.9774 0.048473 1 
1456 1 -8.4445 20.5522 -5.1161 0.0961658 1 
1457 1 -8.2508 23.3546 -4.29621 0.237186 1 
1458 1 -6.38575 21.3573 -3.27497 4.02029 5 
1459 1 -6.11654 24.0631 -2.2637 2.93291 5 
1460 1 -8.30587 22.424 -1.67796 6.74759 5 
1461 1 -7.71038 24.7538 -0.157595 3.73285 5 
1482 1 -6.73164 9.65178 -14.9003 0.000157573 1 
1483 1 -6.56007 12.4165 -14.2023 0.000277884 1 
1484 1 -8.77675 10.8541 -13.2847 0.000304561 1 
1485 1 -8.60469 13.6169 -12.59 0.000693907 1 
1486 1 -6.7932 11.727 -11.4212 0.00110064 1 
1487 1 -6.61635 14.4889 -10.7414 0.000916106 1 
1488 1 -8.841 12.9259 -9.80235 0.00334709 1 
1489 1 -8.65729 15.6917 -9.13928 0.00114266 1 
1490 1 -6.85923 13.7891 -7.9606 0.00382807 1 
1491 1 -6.65552 16.5542 -7.30573 0.0027637 1 
1492 1 -8.89637 14.9987 -6.36337 0.00741423 1 
1493 1 -8.67032 17.7553 -5.70262 0.0343799 1 
1494 1 -6.88853 15.8419 -4.5344 0.0487211 1 
1495 1 -6.63093 18.5738 -3.9268 0.0971485 1 
1496 1 -8.86909 17.0068 -2.88698 0.684677 1 
1497 1 -8.55131 19.7426 -2.44832 4.92616 5 
1509 1 -9.11482 5.32148 -14.7007 0.000224327 1 
1510 1 -8.94565 8.09042 -13.9905 0.00022343 1 
1511 1 -7.12602 6.20585 -12.8358 0.000439775 1 
1512 1 -6.96114 8.9678 -12.1216 0.000581119 1 
1513 1 -9.17279 7.4131 -11.2136 0.000904171 1 
1514 1 -9.01024 10.171 -10.501 0.000714816 1 
1515 1 -7.19612 8.28338 -9.3341 0.0025325 1 
1516 1 -7.0376 11.0353 -8.62819 0.00455583 1 
1517 1 -9.25185 9.48983 -7.71136 0.00520288 1 
1518 1 -9.09095 12.2325 -6.99255 0.0201354 1 
1519 1 -7.29768 10.338 -5.81312 0.0335177 1 
1520 1 -7.12175 13.0851 -5.16423 0.0181485 1 
1521 1 -9.38155 11.5337 -4.15555 0.188096 1 
1522 1 -9.14167 14.3238 -3.60188 0.16795 1 
1523 1 -7.40103 12.3795 -2.34929 7.3546 5 
1524 1 -7.11373 15.2725 -1.65992 0.580418 1 
1525 1 -9.34768 13.8455 -0.944013 10.8018 5 
1529 1 322.202 0.655648 -14.243 0.00023279 1 
1530 1 -7.29474 3.43372 -13.5473 0.000488347 1 
1531 1 -9.50708 1.8677 -12.6435 0.000712345 1 
1532 1 -9.3359 4.64667 -11.9372 0.00101464 1 
1533 1 -7.51199 2.7572 -10.7921 0.00245769 1 
1534 1 -7.34846 5.53082 -10.0656 0.00263203 1 
1535 1 -9.54952 3.98041 -9.18046 0.00594245 1 
1536 1 -9.40165 6.74015 -8.42847 0.00478205 1 
1537 1 -7.55167 4.86762 -7.29195 0.0188919 1 
1538 1 -7.44165 7.60058 -6.52605 0.0218933 1 
1539 1 -9.62569 6.06677 -5.63991 0.0678623 1 
1540 1 -9.53158 8.83879 -4.92978 0.135937 1 
1541 1 -7.6896 6.92002 -3.72968 1.39881 5 
1542 1 -7.63114 9.67156 -2.91417 0.986706 1 
1543 1 -9.96951 8.1673 -2.29322 9.56126 5 
1544 1 -9.71846 10.8843 -1.03749 8.82834 5 
1545 1 -8.22947 8.36911 -0.378969 5.38898 5 
1546 1 -9.72299 1.19166 -9.89234 0.00282982 1 
1547 1 -7.72065 2.08563 -8.05541 0.0141607 1 
1548 1 319.736 0.5161 -7.15396 0.0117039 1 
1549 1 -9.74839 3.32855 -6.44943 0.0500989 1 
1550 1 -7.91684 1.40098 -5.35621 0.0825613 1 
1551 1 -7.72323 4.21261 -4.52762 0.18482 1 
1552 1 -9.90835 2.6664 -3.79983 0.501684 1 
1553 1 -9.71287 5.38692 -2.71649 2.82101 5 
1554 1 -7.78102 3.39033 -1.849 1.75472 5 
1555 1 -7.14207 5.81038 -0.277925 5.20223 5 
1556 1 321.563 0.630729 -2.67469 4.79105 5 
1557 1 -10.0194 1.84541 -1.26532 8.63187 5 
2079 1 0.597465 0.0116506 -13.74 0.000180625 1 
2147 1 -8.73799 36.2718 -14.4286 0.000103269 1 
2148 1 -10.9588 34.7005 -13.5098 0.000228949 1 
2149 1 -10.7754 37.4723 -12.827 0.000224018 1 
2150 1 -8.96344 35.5793 -11.6602 0.00031662 1 
2151 1 -8.77558 38.352 -10.9779 0.000656564 1 
2152 1 -10.9973 36.7779 -10.0604 0.000654828 1 
2153 1 -8.98874 37.6483 -8.21366 0.00383444 1 
2154 1 -11.0026 38.8498 -6.6452 0.0153027 1 
2212 1 -11.3154 29.168 -14.8946 0.000153836 1 
2213 1 -11.1393 31.9332 -14.1973 0.000254829 1 
2214 1 -9.32827 30.0476 -13.0351 0.000315449 1 
2215 1 -9.14937 32.8114 -12.3428 0.000435799 1 
2216 1 -11.3737 31.245 -11.4148 0.000978886 1 
2217 1 -11.1902 34.008 -10.7337 0.000854288 1 
2218 1 -9.38789 32.1172 -9.56297 0.00191317 1 
2219 1 -9.19279 34.8812 -8.89218 0.00126017 1 
2220 1 -11.4322 33.3114 -7.95088 0.00359939 1 
2221 1 -11.2193 36.0789 -7.29054 0.00274615 1 
2222 1 -9.43261 34.1792 -6.12968 0.011709 1 
2223 1 -9.19599 36.9336 -5.42827 0.0388767 1 
2224 1 -11.451 35.3692 -4.52009 0.0479658 1 
2225 1 -11.1904 38.0974 -3.90695 0.103204 1 
2226 1 -9.43303 36.1855 -2.6012 0.407652 1 
2276 1 -9.67222 24.5162 -14.4481 0.000235426 1 
2277 1 -9.50119 27.2844 -13.7384 0.000256802 1 
2278 1 -11.717 25.7223 -12.8272 0.000391424 1 
2279 1 -11.5477 28.4848 -12.1144 0.00053678 1 
2280 1 -9.73181 26.6027 -10.961 0.00124232 1 
2281 1 -9.5662 29.3593 -10.2536 0.00115526 1 
2282 1 -11.7846 27.8015 -9.32545 0.00245679 1 
2283 1 -11.6188 30.5553 -8.62046 0.00405 1 
2284 1 -9.81827 28.6681 -7.46617 0.00676383 1 
2285 1 -9.64605 31.4181 -6.77323 0.0102911 1 
2286 1 -11.8759 29.8586 -5.8053 0.0321917 1 
2287 1 -11.6922 32.6092 -5.15522 0.0185201 1 
2288 1 -9.93783 30.7068 -3.96622 0.0951217 1 
2289 1 -9.69198 33.5041 -3.39035 0.208556 1 
2290 1 -11.9714 31.9038 -2.3411 7.36283 5 
2291 1 -11.6808 34.7983 -1.6527 0.570569 1 
2292 1 -9.92052 32.94 -0.764098 9.52285 5 
2333 1 -12.0601 20.1741 -14.2346 0.000187452 1 
2334 1 -11.8874 22.9508 -13.5377 0.000415243 1 
2335 1 -10.0677 21.0591 -12.3909 0.00087246 1 
2336 1 -9.89696 23.8374 -11.6854 0.00125137 1 
2337 1 -12.1087 22.2744 -10.7803 0.00232394 1 
2338 1 -11.9428 25.0477 -10.0554 0.00266881 1 
2339 1 -10.1099 23.1629 -8.93358 0.00907627 1 
2340 1 -9.96138 25.9212 -8.17443 0.0119674 1 
2341 1 -12.145 24.3851 -7.28136 0.0197166 1 
2342 1 -12.0275 27.1185 -6.51628 0.0233618 1 
2343 1 -10.1341 25.2447 -5.34876 0.12122 1 
2344 1 -10.0824 27.9665 -4.65626 0.138089 1 
2345 1 -12.2683 26.4386 -3.71707 1.4037 5 
2346 1 -12.2051 29.1936 -2.91013 0.976674 1 
2347 1 -10.4401 27.2639 -1.88534 7.55305 5 
2348 1 -10.2092 29.9465 -0.974016 9.59436 5 
2349 1 -12.7942 27.8884 -0.379792 5.29867 5 
2380 1 -12.2336 17.3995 -14.9236 9.33643e-05 1 
2381 1 -10.4179 15.5084 -13.759 0.0002365 1 
2382 1 -10.2426 18.281 -13.076 0.000248438 1 
2383 1 -12.4591 16.7158 -12.1522 0.000277607 1 
2384 1 -12.2833 19.4918 -11.4714 0.000632613 1 
2385 1 -10.4665 17.593 -10.3087 0.000738183 1 
2386 1 -10.2842 20.3749 -9.64169 0.00407994 1 
2387 1 -12.503 18.8083 -8.70875 0.00339017 1 
2388 1 -12.3177 21.6027 -8.04271 0.0142344 1 
2389 1 -10.4873 19.6855 -6.91118 0.0205597 1 
2390 1 -10.2929 22.4981 -6.21767 0.0773775 1 
2391 1 -12.5086 20.9182 -5.34558 0.0819422 1 
2392 1 -12.3101 23.7291 -4.52131 0.178958 1 
2393 1 -10.4474 21.7916 -3.59995 0.605807 1 
2394 1 -10.222 24.4854 -2.52843 2.02047 5 
2395 1 -12.3514 22.9138 -1.84582 1.77382 5 
2396 1 -11.7017 25.3327 -0.275878 5.21716 5 
2419 1 -10.5916 12.7409 -14.4488 0.000241785 1 
2420 1 -12.806 11.18 -13.5329 0.000295388 1 
2421 1 -12.6338 13.9455 -12.836 0.000437116 1 
2422 1 -10.8219 12.0573 -11.6663 0.000877618 1 
2423 1 -10.647 14.8211 -10.9814 0.000824521 1 
2424 1 -12.8639 13.2634 -10.0496 0.00188561 1 
2425 1 -12.685 16.0333 -9.3774 0.000731516 1 
2426 1 -10.8823 14.1336 -8.19435 0.00307175 1 
2427 1 -10.6901 16.9055 -7.53454 0.00395204 1 
2428 1 -12.9143 15.3587 -6.59803 0.00364865 1 
2429 1 -12.7232 18.1231 -5.93046 0.0389612 1 
2430 1 -10.9203 16.2361 -4.74432 0.0425119 1 
2431 1 -10.6624 19.0053 -4.198 0.151445 1 
2432 1 -12.9998 17.4071 -3.12257 0.85439 1 
2433 1 -12.6788 20.1545 -2.6716 4.74359 5 
2434 1 -10.9268 18.2085 -1.59207 9.14332 5 
2435 1 -10.5281 20.855 -1.09055 8.77408 5 
2448 1 -13.1472 5.64275 -14.9512 0.000240436 1 
2449 1 -12.9764 8.41392 -14.2412 0.000189235 1 
2450 1 -11.1575 6.53111 -13.0872 0.000432698 1 
2451 1 -10.9909 9.29616 -12.3717 0.000404646 1 
2452 1 -13.2019 7.74069 -11.4669 0.000704868 1 
2453 1 -13.0358 10.5025 -10.7485 0.000982612 1 
2454 1 -11.2237 8.62104 -9.58761 0.00126949 1 
2455 1 -11.0601 11.3756 -8.87194 0.00314826 1 
2456 1 -13.2774 9.82938 -7.9529 0.00403691 1 
2457 1 -13.1032 12.5865 -7.2455 0.00882966 1 
2458 1 -11.3206 10.6997 -6.06834 0.0382718 1 
2459 1 -11.1294 13.4594 -5.39163 0.0151576 1 
2460 1 -13.3615 11.9251 -4.43335 0.357465 1 
2461 1 -13.1564 14.719 -3.82664 0.10458 1 
2462 1 -11.427 12.7691 -2.55972 7.25579 5 
2463 1 -11.1725 15.5786 -1.90835 0.744866 1 
2464 1 -13.4016 14.2371 -1.12973 11.3337 5 
2469 1 318.169 0.978271 -14.4937 0.00021185 1 
2470 1 -11.3273 3.75707 -13.7979 0.000439514 1 
2471 1 -13.5412 2.18996 -12.894 0.000655002 1 
2472 1 -13.3681 4.97048 -12.1903 0.00110849 1 
2473 1 -11.5443 3.08501 -11.0425 0.00178346 1 
2474 1 -11.3796 5.86171 -10.3189 0.00184554 1 
2475 1 -13.5821 4.3067 -9.43857 0.00665924 1 
2476 1 -13.4314 7.07311 -8.68717 0.00311377 1 
2477 1 -11.5967 5.20163 -7.54956 0.0113858 1 
2478 1 -11.4735 7.95378 -6.7992 0.010886 1 
2479 1 -13.67 6.40209 -5.90281 0.0457154 1 
2480 1 -13.5459 9.17695 -5.13355 0.0678376 1 
2481 1 -11.7684 7.26394 -4.05311 2.50218 5 
2482 1 -11.6955 10.0891 -3.16286 0.784269 1 
2483 1 -13.9051 8.43505 -2.33975 6.13149 5 
2484 1 -13.8032 11.3455 -1.09862 9.26512 5 
2485 1 -12.086 9.05546 -0.508342 7.90972 5 
2486 1 317.949 0.300123 -11.7345 0.000589022 1 
2487 1 315.915 1.51703 -10.1441 0.00298098 1 
2488 1 -11.7528 2.41955 -8.3 0.00827994 1 
2489 1 315.71 0.847947 -7.40166 0.0188895 1 
2490 1 -13.7705 3.66189 -6.702 0.0509508 1 
2491 1 -11.9498 1.75754 -5.57798 0.048834 1 
2492 1 -11.7724 4.56381 -4.74432 0.190374 1 
2493 1 -13.946 3.01312 -4.02719 0.288374 1 
2494 1 -13.8321 5.71357 -3.00283 6.34632 5 
2495 1 -11.837 3.88878 -2.00926 2.16388 5 
2496 1 -10.9652 6.49126 -0.313471 6.86316 5 
2497 1 315.52 0.173042 -4.64724 0.287977 1 
2498 1 317.521 1.08211 -2.86775 5.55743 5 
2499 1 -14.0624 2.36055 -1.41836 6.54516 5 
3082 1 -12.7706 36.5911 -14.6777 0.000111352 1 
3083 1 -14.9889 35.0225 -13.7571 0.000230653 1 
3084 1 -14.8078 37.796 -13.077 0.000228461 1 
3085 1 -12.9961 35.9017 -11.9063 0.000327084 1 
3086 1 -12.8107 38.6767 -11.2305 0.000778902 1 
3087 1 -15.0298 37.1083 -10.3085 0.000677137 1 
3088 1 -13.0247 37.9817 -8.46846 0.00369823 1 
3148 1 -15.1684 32.2543 -14.4427 0.000258414 1 
3149 1 -13.3584 30.3691 -13.2764 0.00027066 1 
3150 1 -13.1802 33.1326 -12.5841 0.000651552 1 
3151 1 -15.4002 31.5708 -11.6573 0.000892309 1 
3152 1 -15.2175 34.3353 -10.9777 0.000765224 1 
3153 1 -13.4168 32.443 -9.7943 0.00311905 1 
3154 1 -13.2251 35.2101 -9.13149 0.000968414 1 
3155 1 -15.4533 33.6483 -8.18907 0.00291227 1 
3156 1 -15.2539 36.4213 -7.53297 0.00411487 1 
3157 1 -13.4652 34.5195 -6.35446 0.00734319 1 
3158 1 -13.2333 37.2756 -5.69267 0.036647 1 
3159 1 -15.4914 35.7554 -4.73855 0.0476657 1 
3160 1 -15.2322 38.5236 -4.19857 0.161097 1 
3161 1 -13.438 36.5256 -2.87811 0.70236 1 
3162 1 -15.5026 37.7243 -1.59687 9.06919 5 
3212 1 -13.7046 24.8367 -14.6868 0.000154276 1 
3213 1 -13.5324 27.6051 -13.9791 0.000200857 1 
3214 1 -15.7473 26.0441 -13.0666 0.000279023 1 
3215 1 -15.5756 28.8092 -12.3571 0.000356801 1 
3216 1 -13.7632 26.9279 -11.1988 0.000802517 1 
3217 1 -13.5939 29.6868 -10.4901 0.000567166 1 
3218 1 -15.8117 28.135 -9.56894 0.00113054 1 
3219 1 -15.6405 30.8902 -8.86017 0.00329468 1 
3220 1 -13.8367 29.007 -7.69833 0.00469804 1 
3221 1 -13.6671 31.751 -6.98309 0.0190106 1 
3222 1 -15.9043 30.2169 -6.05378 0.0332531 1 
3223 1 -15.7035 32.9754 -5.38513 0.0123165 1 
3224 1 -13.954 31.0548 -4.14877 0.181866 1 
3225 1 -13.7108 33.8459 -3.59734 0.174532 1 
3226 1 -15.9952 32.289 -2.55671 7.14757 5 
3227 1 -15.7523 35.0957 -1.90862 0.72178 1 
3228 1 -13.9197 33.3713 -0.940265 10.7739 5 
3270 1 -16.0922 20.4963 -14.4724 7.94315e-05 1 
3271 1 -15.9192 23.2718 -13.7741 0.000203788 1 
3272 1 -14.102 21.385 -12.6243 0.000470704 1 
3273 1 -13.9307 24.1617 -11.9185 0.000807582 1 
3274 1 -16.1428 22.599 -11.0087 0.00102496 1 
3275 1 -15.9751 25.374 -10.2914 0.00130481 1 
3276 1 -14.1488 23.4954 -9.15753 0.00588774 1 
3277 1 -13.9948 26.2558 -8.41124 0.00494827 1 
3278 1 -16.1986 24.7141 -7.51732 0.0106727 1 
3279 1 -16.0648 27.4706 -6.77771 0.0104493 1 
3280 1 -14.2165 25.584 -5.62376 0.0682874 1 
3281 1 -14.1126 28.3566 -4.91878 0.132927 1 
3282 1 -16.356 26.7849 -4.03337 2.42555 5 
3283 1 -16.2653 29.6103 -3.15567 0.751508 1 
3284 1 -14.5453 27.684 -2.28268 9.55484 5 
3285 1 -14.2884 30.4029 -1.0347 8.8383 5 
3286 1 -16.6587 28.5682 -0.50259 7.9254 5 
3319 1 -14.4487 15.8344 -14.0037 0.000123536 1 
3320 1 -14.2754 18.6078 -13.3151 0.000147583 1 
3321 1 -16.4899 17.0433 -12.3947 0.000148489 1 
3322 1 -16.3169 19.8189 -11.7042 0.000290571 1 
3323 1 -14.4993 17.9286 -10.5464 0.000448918 1 
3324 1 -14.3227 20.7091 -9.86715 0.00231212 1 
3325 1 -16.5404 19.1435 -8.93555 0.00210579 1 
3326 1 -16.3587 21.9314 -8.25518 0.00649943 1 
3327 1 -14.5378 20.0331 -7.12353 0.01191 1 
3328 1 -14.3471 22.8424 -6.42797 0.0523091 1 
3329 1 -16.5588 21.2635 -5.52201 0.0449874 1 
3330 1 -16.3707 24.0756 -4.72164 0.178791 1 
3331 1 -14.506 22.1787 -3.78476 0.535019 1 
3332 1 -14.292 24.9033 -2.71132 2.75005 5 
3333 1 -16.42 23.4192 -1.99506 2.28504 5 
3334 1 -15.5594 26.0014 -0.315159 6.17603 5 
3357 1 -14.6214 13.0649 -14.6968 0.00015368 1 
3358 1 -16.8346 11.5027 -13.7839 0.000172514 1 
3359 1 -16.6626 14.271 -13.0847 0.000208343 1 
3360 1 -14.8472 12.386 -11.9165 0.000611743 1 
3361 1 -14.6741 15.1541 -11.2277 0.000422914 1 
3362 1 -16.8869 13.5934 -10.3046 0.0012522 1 
3363 1 -16.7136 16.368 -9.62359 0.000742357 1 
3364 1 -14.9016 14.4776 -8.44642 0.00170256 1 
3365 1 -14.7226 17.2539 -7.77605 0.00217606 1 
3366 1 -16.9387 15.7038 -6.85434 0.00753977 1 
3367 1 -16.7655 18.4713 -6.15381 0.0223922 1 
3368 1 -14.959 16.5932 -5.00277 0.0295004 1 
3369 1 -14.7492 19.3652 -4.38675 0.0620587 1 
3370 1 -17.0148 17.8247 -3.34475 2.24169 5 
3371 1 -16.7544 20.5785 -2.78536 5.55708 5 
3372 1 -15.0042 18.6356 -1.62484 11.9581 5 
3373 1 -14.5854 21.3796 -1.25617 8.72711 5 
3388 1 -17.0069 8.7338 -14.4917 0.000155223 1 
3389 1 -15.1888 6.85237 -13.3388 0.000394377 1 
3390 1 -15.0182 9.62084 -12.6226 0.000432157 1 
3391 1 -17.2291 8.06143 -11.7221 0.000645683 1 
3392 1 -17.0579 10.8278 -11.0054 0.000648667 1 
3393 1 -15.2449 8.94831 -9.83834 0.00234648 1 
3394 1 -15.076 11.7106 -9.12573 0.00230996 1 
3395 1 -17.2814 10.1565 -8.2189 0.00300167 1 
3396 1 -17.1099 12.9176 -7.51158 0.0123178 1 
3397 1 -15.3148 11.0397 -6.31884 0.0173789 1 
3398 1 -15.135 13.8154 -5.65848 0.00804023 1 
3399 1 -17.3129 12.2431 -4.6893 0.22878 1 
3400 1 -17.1375 15.0648 -4.09166 0.088337 1 
3401 1 -15.3541 13.168 -2.86194 6.15705 5 
3402 1 -15.2222 15.9769 -2.13548 2.26957 5 
3403 1 -17.4074 14.461 -1.36347 10.966 5 
3408 1 314.134 1.29674 -14.7412 0.000128429 1 
3409 1 -15.3615 4.07619 -14.0476 0.000480739 1 
3410 1 -17.5779 2.50506 -13.139 0.000385352 1 
3411 1 -17.4024 5.287 -12.4401 0.000911448 1 
3412 1 -15.5813 3.40475 -11.2965 0.00334246 1 
3413 1 -15.4105 6.18364 -10.5747 0.0016439 1 
3414 1 -17.6233 4.61996 -9.69056 0.00558012 1 
3415 1 -17.4496 7.39454 -8.95094 0.00317722 1 
3416 1 -15.6303 5.52098 -7.81453 0.00765146 1 
3417 1 -15.4789 8.27919 -7.03289 0.0173691 1 
3418 1 -17.675 6.73078 -6.17833 0.0189126 1 
3419 1 -17.4988 9.50434 -5.41045 0.0349373 1 
3420 1 -15.7361 7.5902 -4.21608 0.418788 1 
3421 1 -15.5278 10.3968 -3.42047 0.589623 1 
3422 1 -17.7739 8.82435 -2.62795 1.1479 1 
3423 1 -17.3014 11.6104 -1.58758 7.55351 5 
3424 1 -15.9771 9.4332 -0.614469 6.6837 5 
3425 1 313.912 0.619841 -11.981 0.000340075 1 
3426 1 311.87 1.82911 -10.3841 0.00206709 1 
3427 1 -15.7923 2.74416 -8.57271 0.0346936 1 
3428 1 311.645 1.15492 -7.62868 0.0212419 1 
3429 1 -17.8376 3.96637 -6.95893 0.0410504 1 
3430 1 -15.9878 2.10907 -5.91651 0.326739 1 
3431 1 -15.8268 4.87665 -5.04698 0.0671272 1 
3432 1 -18.0374 3.31567 -4.27366 0.24607 1 
3433 1 -17.8595 6.06755 -3.34788 0.554184 1 
3434 1 -16.0152 4.17566 -2.34076 0.673554 1 
3435 1 -15.713 6.68676 -0.945415 7.91875 5 
3436 1 -18.3794 7.94046 -0.0732778 10.0917 5 
3437 1 311.409 0.476618 -4.85734 0.385533 5 
3438 1 313.505 1.48488 -3.34215 2.70841 5 
3439 1 -18.2041 2.60065 -1.65552 6.29324 5 
3440 1 313.379 0.750505 -0.898542 9.20052 5 
4014 1 -16.8015 36.9132 -14.928 0.000107608 1 
4015 1 -19.0181 35.3461 -14.0086 0.000187077 1 
4016 1 -18.8392 38.1214 -13.3292 0.00021853 1 
4017 1 -17.0252 36.2287 -12.1568 0.000310151 1 
4018 1 -16.8436 39.0065 -11.4817 0.000706294 1 
4019 1 -19.0602 37.4408 -10.5645 0.000478396 1 
4020 1 -17.0617 38.3224 -8.72077 0.00327629 1 
4080 1 -19.196 32.5758 -14.6926 0.000219601 1 
4081 1 -17.3853 30.6916 -13.5221 0.000338739 1 
4082 1 -17.207 33.4574 -12.8327 0.000531342 1 
4083 1 -19.4238 31.8965 -11.9085 0.000788068 1 
4084 1 -19.2437 34.6648 -11.2319 0.000650519 1 
4085 1 -17.4389 32.7753 -10.0432 0.00225069 1 
4086 1 -17.2505 35.5453 -9.38196 0.000800265 1 
4087 1 -19.4741 33.9881 -8.44765 0.00231251 1 
4088 1 -19.2822 36.7646 -7.79882 0.00116035 1 
4089 1 -17.4801 34.8695 -6.60233 0.00487834 1 
4090 1 -17.284 37.6371 -5.9426 0.0405917 1 
4091 1 -19.5125 36.0965 -5.03384 0.0308275 1 
4092 1 -19.3046 38.8802 -4.41988 0.0722375 1 
4093 1 -17.5807 36.9335 -3.12519 0.827196 1 
4094 1 -19.6604 38.1486 -1.63713 12.5741 5 
4145 1 -17.7338 25.1554 -14.9279 9.55691e-05 1 
4146 1 -17.5602 27.9255 -14.2233 0.00015805 1 
4147 1 -19.7733 26.3627 -13.3106 0.000210287 1 
4148 1 -19.5998 29.131 -12.6038 0.000510909 1 
4149 1 -17.79 27.2522 -11.4422 0.000537776 1 
4150 1 -17.6183 30.0145 -10.733 0.00105153 1 
4151 1 -19.8319 28.46 -9.8116 0.00248604 1 
4152 1 -19.6574 31.2228 -9.11221 0.00256766 1 
4153 1 -17.8644 29.3441 -7.93306 0.00462045 1 
4154 1 -17.682 32.0996 -7.23502 0.010547 1 
4155 1 -19.9046 30.5593 -6.29986 0.0183856 1 
4156 1 -19.7135 33.3254 -5.65313 0.00839323 1 
4157 1 -17.9482 31.4416 -4.41477 0.305233 1 
4158 1 -17.7294 34.2306 -3.82766 0.0956327 1 
4159 1 -19.9508 32.6752 -2.83885 6.37249 5 
4160 1 -19.7671 35.4881 -2.15943 2.32811 5 
4161 1 -17.9752 33.74 -1.12771 11.3699 5 
4203 1 -20.1217 20.8137 -14.7111 3.11449e-05 1 
4204 1 -19.9471 23.5888 -14.0136 9.15208e-05 1 
4205 1 -18.1328 21.7052 -12.8581 0.000119865 1 
4206 1 -17.96 24.4819 -12.1558 0.000437292 1 
4207 1 -20.1709 22.9151 -11.2425 0.000438943 1 
4208 1 -19.9998 25.6936 -10.5343 0.0010613 1 
4209 1 -18.1829 23.8153 -9.38904 0.00333345 1 
4210 1 -18.0247 26.5866 -8.65655 0.00234521 1 
4211 1 -20.225 25.0341 -7.76133 0.00825854 1 
4212 1 -20.0736 27.7974 -6.99796 0.0173207 1 
4213 1 -18.2688 25.9231 -5.86884 0.0411958 1 
4214 1 -18.1416 28.6995 -5.10962 0.0582119 1 
4215 1 -20.3418 27.1271 -4.16853 0.308346 1 
4216 1 -20.1405 29.9406 -3.38818 0.497261 1 
4217 1 -18.4878 27.9893 -2.33095 6.3594 5 
4218 1 -18.343 30.8602 -1.10085 8.88251 5 