ITEM: TIMESTEP
0
ITEM: NUMBER OF ATOMS
10128
ITEM: BOX BOUNDS xy xz yz pp pp ss
0 381.763341807 233.619678426
0 38.115428005 0
-143.1415203936455 133.0694394915231 0
ITEM: ATOMS id type x y z c_csym c_cna 
6 1 147.403 2.45417 -12.6961 0.000104645 1 
7 1 147.957 4.23271 -9.10885 0.00132354 1 
8 1 146.185 0.0201459 -13.5867 7.37727e-05 1 
9 1 146.736 1.796 -9.99272 0.000785073 1 
10 1 146.063 1.13873 -7.28881 0.00586415 1 
11 1 147.284 3.5858 -6.41998 0.00919491 1 
12 1 148.134 1.09479 -5.34832 0.0500108 1 
59 1 148.182 12.338 -13.1274 0.000193369 1 
77 1 145.743 7.46839 -14.9085 2.46832e-05 1 
78 1 146.962 9.90316 -14.0187 6.90465e-05 1 
79 1 147.793 7.39504 -12.9121 0.000108605 1 
80 1 146.296 9.24202 -11.3194 0.000339179 1 
81 1 147.517 11.6793 -10.4346 0.00105149 1 
82 1 146.844 11.0253 -7.75828 0.00526327 1 
83 1 148.071 13.4671 -6.87235 0.0111359 1 
94 1 145.355 2.52672 -14.6916 3.98654e-05 1 
95 1 146.573 4.96072 -13.8017 5.11504e-05 1 
96 1 143.859 4.3705 -13.0901 0.000149103 1 
97 1 145.076 6.80569 -12.2039 0.000145691 1 
98 1 145.906 4.2994 -11.0964 0.000365475 1 
99 1 147.127 6.73564 -10.2121 0.00057621 1 
100 1 144.407 6.14054 -9.49734 0.000772756 1 
101 1 145.624 8.58063 -8.62405 0.00157255 1 
102 1 146.453 6.07884 -7.51525 0.00289207 1 
103 1 147.683 8.51937 -6.64386 0.0140864 1 
104 1 144.94 7.91555 -5.92926 0.00993285 1 
112 1 142.643 1.93715 -13.9809 6.98865e-05 1 
113 1 144.688 1.86458 -11.9828 0.000282372 1 
114 1 141.979 1.27225 -11.267 0.000358743 1 
115 1 143.192 3.70403 -10.3758 0.0009862 1 
116 1 144.02 1.20043 -9.26767 0.00163015 1 
117 1 145.234 3.63648 -8.38758 0.00234766 1 
118 1 142.528 3.03029 -7.6455 0.00804349 1 
119 1 143.736 5.46705 -6.78133 0.00452103 1 
120 1 144.566 2.96635 -5.66229 0.0317518 1 
126 1 141.319 0.604682 -8.54252 0.00314717 1 
127 1 143.354 0.529071 -6.53739 0.0286512 1 
128 1 374.311 38.0469 -5.78782 0.0246119 1 
292 1 147.74 19.7876 -14.4346 5.49039e-05 1 
293 1 147.076 19.1301 -11.7343 0.000330615 1 
294 1 147.636 20.9059 -8.14171 0.0033055 1 
329 1 147.351 14.8472 -14.2309 0.000107016 1 
330 1 144.634 14.2604 -13.5283 0.000136664 1 
331 1 145.854 16.6969 -12.6343 0.000253283 1 
332 1 146.685 14.1889 -11.5361 0.000521148 1 
333 1 147.908 16.6242 -10.6369 0.000949389 1 
334 1 145.183 16.0411 -9.94317 0.00115952 1 
335 1 146.406 18.4777 -9.04255 0.00189186 1 
336 1 147.239 15.9742 -7.95766 0.00521361 1 
337 1 145.725 17.8331 -6.36856 0.0180846 1 
338 1 146.968 20.2655 -5.47946 0.0295078 1 
365 1 143.416 11.8235 -14.4182 5.30875e-05 1 
366 1 144.246 9.31414 -13.3118 8.11543e-05 1 
367 1 145.464 11.7511 -12.4256 0.000219467 1 
368 1 142.747 11.1597 -11.7154 0.000324851 1 
369 1 143.963 13.5998 -10.8323 0.000636375 1 
370 1 144.792 11.0892 -9.73169 0.0010915 1 
371 1 146.011 13.5336 -8.85263 0.00206276 1 
372 1 143.285 12.9346 -8.13829 0.002959 1 
373 1 144.501 15.3864 -7.26125 0.0058271 1 
374 1 145.322 12.8787 -6.18171 0.00992545 1 
375 1 146.55 15.3289 -5.30834 0.0423778 1 
395 1 143.03 6.87866 -14.1995 5.03162e-05 1 
396 1 140.319 6.28857 -13.4903 9.6776e-05 1 
397 1 141.534 8.7228 -12.6013 0.000130744 1 
398 1 142.364 6.21242 -11.4902 0.000279667 1 
399 1 143.577 8.64899 -10.6077 0.000461682 1 
400 1 140.868 8.05372 -9.89056 0.000682437 1 
401 1 142.074 10.4903 -9.00858 0.00191802 1 
402 1 142.904 7.9767 -7.89818 0.00243462 1 
403 1 144.108 10.4213 -7.04002 0.00658987 1 
404 1 141.397 9.80846 -6.28862 0.0315929 1 
405 1 142.605 12.2517 -5.43603 0.0507725 1 
415 1 139.103 3.85621 -14.3821 5.54528e-05 1 
416 1 139.934 1.34786 -13.2717 8.74043e-05 1 
417 1 141.15 3.77927 -12.3781 0.000222892 1 
418 1 138.444 3.19119 -11.6721 0.000338943 1 
419 1 139.658 5.62106 -10.778 0.000599641 1 
420 1 140.49 3.11074 -9.6585 0.00126863 1 
421 1 141.699 5.5405 -8.77315 0.00133026 1 
422 1 139.003 4.95021 -8.05622 0.00395422 1 
423 1 140.206 7.37743 -7.16976 0.00642089 1 
424 1 141.043 4.85419 -6.04099 0.00775321 1 
425 1 142.226 7.28445 -5.17749 0.0600447 1 
431 1 137.225 0.761377 -12.5665 0.000141776 1 
432 1 139.276 0.683091 -10.5577 0.000530458 1 
433 1 136.569 0.100723 -9.85906 0.00111977 1 
434 1 137.791 2.52681 -8.95912 0.00228323 1 
435 1 138.629 0.0213011 -7.83732 0.00482733 1 
436 1 139.841 2.43756 -6.92056 0.00725276 1 
437 1 137.137 1.87292 -6.25055 0.0109324 1 
438 1 138.352 4.28602 -5.31949 0.0308447 1 
742 1 295.998 29.0035 -12.146 0.000248422 1 
797 1 296.273 24.7251 -14.6402 4.40626e-05 1 
798 1 293.558 24.141 -13.9379 5.67953e-05 1 
799 1 294.778 26.5724 -13.0421 0.000120622 1 
800 1 295.611 24.0655 -11.9371 0.00028605 1 
801 1 294.114 25.9152 -10.3443 0.000676207 1 
802 1 295.338 28.3483 -9.45189 0.00201017 1 
803 1 296.176 25.8369 -8.34361 0.00262666 1 
804 1 294.675 27.7028 -6.78518 0.01676 1 
805 1 295.901 30.1351 -5.86093 0.00833769 1 
852 1 144.194 21.7088 -14.8343 3.31288e-05 1 
853 1 145.024 19.203 -13.733 9.60394e-05 1 
854 1 146.245 21.6352 -12.8347 0.000116047 1 
855 1 143.527 21.0494 -12.1309 0.000171863 1 
856 1 144.748 23.4826 -11.2368 0.000288544 1 
857 1 145.577 20.9785 -10.1349 0.000638162 1 
858 1 146.804 23.4099 -9.24126 0.00138696 1 
859 1 144.075 22.8251 -8.53986 0.00151063 1 
860 1 293.443 25.2636 -7.65815 0.0038512 1 
861 1 146.132 22.7619 -6.55992 0.00777169 1 
862 1 295.51 25.1855 -5.66222 0.0215619 1 
906 1 143.805 16.7684 -14.6293 6.98382e-05 1 
907 1 141.091 16.1792 -13.9222 8.54535e-05 1 
908 1 142.308 18.6149 -13.027 0.00013991 1 
909 1 143.135 16.1086 -11.9293 0.000354809 1 
910 1 144.355 18.5456 -11.0339 0.000498447 1 
911 1 141.637 17.9529 -10.3206 0.00082347 1 
912 1 142.855 20.389 -9.42633 0.000904474 1 
913 1 143.678 17.8885 -8.33739 0.00300384 1 
914 1 144.897 20.3244 -7.43452 0.00686593 1 
915 1 142.183 19.7235 -6.71177 0.0199343 1 
916 1 143.394 22.1689 -5.84208 0.0183761 1 
950 1 139.874 13.7433 -14.8153 3.18973e-05 1 
951 1 140.704 11.2334 -13.7094 6.97605e-05 1 
952 1 141.919 13.6701 -12.8196 0.000175246 1 
953 1 139.209 13.0793 -12.1091 0.00016979 1 
954 1 140.423 15.5159 -11.2165 0.000467102 1 
955 1 141.248 13.0042 -10.1135 0.00109758 1 
956 1 142.462 15.4466 -9.22995 0.0018174 1 
957 1 139.757 14.849 -8.50438 0.00312795 1 
958 1 140.966 17.2838 -7.60365 0.0111677 1 
959 1 141.787 14.7734 -6.52522 0.0193132 1 
960 1 142.986 17.2206 -5.63951 0.108607 1 
986 1 139.488 8.79875 -14.6001 3.48353e-05 1 
987 1 136.778 8.21189 -13.8946 5.73623e-05 1 
988 1 137.994 10.6448 -13.0016 8.47311e-05 1 
989 1 138.826 8.1334 -11.8926 0.0002192 1 
990 1 140.038 10.5671 -11.0014 0.000403657 1 
991 1 137.334 9.98076 -10.2939 0.000593265 1 
992 1 138.547 12.4132 -9.39828 0.00106781 1 
993 1 139.375 9.89596 -8.2852 0.00322914 1 
994 1 140.579 12.3289 -7.39467 0.0104841 1 
995 1 137.902 11.7444 -6.67695 0.00778697 1 
996 1 139.112 14.1737 -5.78014 0.0197984 1 
1011 1 135.56 5.77924 -14.7865 4.06327e-05 1 
1012 1 136.393 3.26991 -13.6773 8.97775e-05 1 
1013 1 137.611 5.70144 -12.7853 0.000164175 1 
1014 1 134.899 5.11797 -12.0842 0.00029401 1 
1015 1 136.118 7.55008 -11.1914 0.000447027 1 
1016 1 136.955 5.03807 -10.08 0.00123491 1 
1017 1 138.168 7.46685 -9.18203 0.0015342 1 
1018 1 135.464 6.8942 -8.49602 0.00349691 1 
1019 1 136.684 9.31944 -7.58146 0.00380978 1 
1020 1 137.525 6.80698 -6.46691 0.0101955 1 
1021 1 138.737 9.22089 -5.54138 0.0192101 1 
1029 1 135.174 0.838529 -14.5689 3.25807e-05 1 
1030 1 132.459 0.252513 -13.8618 5.09953e-05 1 
1031 1 133.679 2.68503 -12.9732 0.000115252 1 
1032 1 134.512 0.17725 -11.8633 0.000217741 1 
1033 1 135.735 2.60803 -10.9731 0.000599741 1 
1034 1 133.016 2.02507 -10.2735 0.000570593 1 
1035 1 134.24 4.4611 -9.39095 0.00188306 1 
1036 1 135.076 1.95119 -8.27651 0.00301255 1 
1037 1 136.305 4.38182 -7.38356 0.00855946 1 
1038 1 133.576 3.81207 -6.72161 0.0101107 1 
1039 1 134.809 6.25325 -5.83008 0.0180034 1 
1046 1 132.346 1.36598 -7.58184 0.00260791 1 
1047 1 134.402 1.3077 -5.5908 0.0220372 1 
1553 1 294.333 34.0165 -14.3544 2.68664e-05 1 
1554 1 295.553 36.4467 -13.4601 4.9603e-05 1 
1555 1 294.892 35.7872 -10.7539 0.000377614 1 
1556 1 295.457 37.5662 -7.16398 0.00513367 1 
1625 1 293.946 29.0793 -14.1462 5.59053e-05 1 
1626 1 295.165 31.5105 -13.2497 7.60784e-05 1 
1627 1 292.449 30.9264 -12.545 0.000155878 1 
1628 1 293.669 33.3575 -11.6485 0.000208414 1 
1629 1 294.502 30.8542 -10.5484 0.000585856 1 
1630 1 295.726 33.2834 -9.64679 0.000903321 1 
1631 1 293.001 32.7019 -8.9467 0.00131483 1 
1632 1 294.227 35.1339 -8.05468 0.00189045 1 
1633 1 295.063 32.636 -6.95389 0.00521334 1 
1634 1 296.295 35.0654 -6.05543 0.00867441 1 
1635 1 293.548 34.4908 -5.36671 0.0121426 1 
1699 1 290.012 26.0606 -14.3358 4.60321e-05 1 
1700 1 291.23 28.4935 -13.4404 9.29411e-05 1 
1701 1 292.06 25.9879 -12.3385 0.000166849 1 
1702 1 293.28 28.4214 -11.4456 0.00040013 1 
1703 1 290.56 27.8327 -10.7357 0.000614051 1 
1704 1 291.779 30.2687 -9.84338 0.000988215 1 
1705 1 292.608 27.7664 -8.75352 0.0026297 1 
1706 1 293.835 30.2046 -7.85925 0.00341831 1 
1707 1 291.102 29.6085 -7.14353 0.0046133 1 
1708 1 292.323 32.0462 -6.24898 0.00775011 1 
1709 1 293.154 29.5644 -5.18736 0.0196493 1 
1765 1 141.48 21.1209 -14.1285 4.71661e-05 1 
1766 1 290.842 23.5545 -13.2327 8.04997e-05 1 
1767 1 288.129 22.9647 -12.5252 0.000107834 1 
1768 1 289.344 25.3984 -11.6287 0.000316222 1 
1769 1 142.028 22.8928 -10.5269 0.000483989 1 
1770 1 291.388 25.3285 -9.63803 0.00101946 1 
1771 1 288.672 24.7315 -8.91631 0.00194657 1 
1772 1 289.882 27.1671 -8.02703 0.00350709 1 
1773 1 290.707 24.6657 -6.93788 0.00794675 1 
1774 1 291.921 27.1162 -6.06933 0.0173383 1 
1775 1 289.202 26.4834 -5.30305 0.0469808 1 
1823 1 137.551 18.0978 -14.3189 3.54666e-05 1 
1824 1 138.769 20.5312 -13.4219 7.88513e-05 1 
1825 1 139.596 18.0239 -12.3173 0.000184942 1 
1826 1 140.812 20.458 -11.4205 0.000300565 1 
1827 1 138.105 19.8658 -10.7101 0.000628759 1 
1828 1 139.319 22.2983 -9.81353 0.000638992 1 
1829 1 140.145 19.7896 -8.70341 0.00301388 1 
1830 1 141.356 22.2249 -7.81477 0.00322911 1 
1831 1 138.661 21.6225 -7.09235 0.00442849 1 
1832 1 287.999 24.0495 -6.19001 0.0187862 1 
1833 1 140.691 21.5328 -5.0808 0.0323863 1 
1870 1 137.163 13.155 -14.1085 3.05582e-05 1 
1871 1 138.38 15.5894 -13.2143 7.70532e-05 1 
1872 1 135.67 15.0021 -12.5095 0.000101579 1 
1873 1 136.889 17.4348 -11.6112 0.000231926 1 
1874 1 137.718 14.9263 -10.5062 0.000444292 1 
1875 1 138.932 17.3585 -9.60281 0.00134921 1 
1876 1 136.232 16.774 -8.89934 0.00158995 1 
1877 1 137.451 19.1967 -7.98553 0.00452383 1 
1878 1 138.283 16.6905 -6.86969 0.00716322 1 
1879 1 139.507 19.104 -5.95669 0.0172929 1 
1880 1 136.791 18.5306 -5.25664 0.0249153 1 
1910 1 133.233 10.1357 -14.2954 3.19115e-05 1 
1911 1 134.451 12.5689 -13.4032 5.14838e-05 1 
1912 1 135.284 10.0602 -12.2977 0.000148945 1 
1913 1 136.501 12.4926 -11.4028 0.000213655 1 
1914 1 133.789 11.9105 -10.7015 0.000508462 1 
1915 1 135.011 14.3432 -9.807 0.000875489 1 
1916 1 135.847 11.8325 -8.69713 0.00163886 1 
1917 1 137.064 14.2661 -7.79681 0.0036263 1 
1918 1 134.354 13.6936 -7.11853 0.0062233 1 
1919 1 135.574 16.1245 -6.19198 0.00577741 1 
1920 1 136.42 13.6212 -5.10554 0.0219481 1 
1941 1 132.847 5.1938 -14.081 5.89661e-05 1 
1942 1 134.065 7.62745 -13.1906 0.000105647 1 
1943 1 131.349 7.04221 -12.4838 0.000170585 1 
1944 1 132.569 9.47709 -11.5932 0.000230596 1 
1945 1 133.403 6.97041 -10.4931 0.00076429 1 
1946 1 134.626 9.40326 -9.59814 0.00129818 1 
1947 1 131.902 8.82321 -8.89602 0.00140112 1 
1948 1 133.129 11.2596 -8.01012 0.00423412 1 
1949 1 133.968 8.75555 -6.91402 0.00800377 1 
1950 1 135.198 11.1799 -5.99869 0.0106592 1 
1951 1 132.467 10.6236 -5.34832 0.0500108 1 
1962 1 131.628 2.76026 -14.9702 2.33449e-05 1 
1963 1 128.915 2.17241 -14.2608 5.06385e-05 1 
1964 1 130.132 4.60664 -13.3722 8.88148e-05 1 
1965 1 130.963 2.09804 -12.2651 0.000135589 1 
1966 1 132.182 4.53409 -11.381 0.000376081 1 
1967 1 129.464 3.94404 -10.6679 0.000570943 1 
1968 1 130.681 6.38402 -9.7846 0.00106426 1 
1969 1 131.512 3.87614 -8.68959 0.00224451 1 
1970 1 132.736 6.32069 -7.81082 0.00468845 1 
1971 1 130.006 5.72469 -7.08668 0.00650646 1 
1972 1 131.231 8.17473 -6.20152 0.00978549 1 
1973 1 132.064 5.67791 -5.15537 0.0299215 1 
1979 1 128.25 1.5075 -11.5515 0.000316574 1 
1980 1 130.295 1.43362 -9.56098 0.000709991 1 
1981 1 127.585 0.837008 -8.8375 0.00194485 1 
1982 1 128.791 3.27643 -7.96198 0.00362233 1 
1983 1 129.623 0.760932 -6.85413 0.00490307 1 
1984 1 130.832 3.21661 -6.01162 0.0186711 1 
1985 1 128.111 2.58717 -5.24945 0.0638344 1 
1991 1 126.925 0.150164 -6.11393 0.0173458 1 
2731 1 290.789 35.9363 -14.7529 3.96135e-05 1 
2732 1 292.838 35.8617 -12.7536 9.8839e-05 1 
2733 1 291.342 37.7057 -11.1556 0.000304542 1 
2734 1 293.395 37.6342 -9.16268 0.000956402 1 
2807 1 290.4 30.9992 -14.5431 4.16421e-05 1 
2808 1 291.619 33.4309 -13.6471 6.65434e-05 1 
2809 1 288.905 32.8425 -12.9377 0.000110099 1 
2810 1 290.123 35.2735 -12.0426 0.000254522 1 
2811 1 290.951 32.7701 -10.9388 0.000438123 1 
2812 1 292.171 35.2013 -10.0469 0.000631286 1 
2813 1 289.454 34.6066 -9.32657 0.00139333 1 
2814 1 290.671 37.0399 -8.44842 0.00167035 1 
2815 1 291.497 34.5375 -7.33771 0.00349207 1 
2816 1 292.719 36.9789 -6.46725 0.00512415 1 
2817 1 290.002 36.3599 -5.73188 0.0249993 1 
2883 1 286.471 27.9793 -14.7338 3.32106e-05 1 
2884 1 287.688 30.4109 -13.835 8.39779e-05 1 
2885 1 288.516 27.9046 -12.7312 0.000179913 1 
2886 1 289.733 30.3376 -11.8353 0.000257803 1 
2887 1 287.023 29.746 -11.1219 0.000556365 1 
2888 1 288.239 32.177 -10.2235 0.000503834 1 
2889 1 289.062 29.6724 -9.12429 0.00123455 1 
2890 1 290.278 32.1055 -8.22611 0.00214658 1 
2891 1 287.574 31.5041 -7.49941 0.0071854 1 
2892 1 288.785 33.9286 -6.59603 0.0204626 1 
2893 1 289.601 31.4278 -5.50436 0.0695898 1 
2955 1 286.084 23.0392 -14.5277 3.10849e-05 1 
2956 1 287.3 25.4721 -13.6295 5.9975e-05 1 
2957 1 284.591 24.8848 -12.927 0.000114003 1 
2958 1 285.807 27.3159 -12.0245 0.000195224 1 
2959 1 286.635 24.8075 -10.9197 0.000350653 1 
2960 1 287.847 27.2389 -10.0179 0.00108427 1 
2961 1 285.146 26.6499 -9.31072 0.00108864 1 
2962 1 286.36 29.075 -8.39787 0.00465427 1 
2963 1 287.179 26.5643 -7.29101 0.00784117 1 
2964 1 288.392 28.9957 -6.40377 0.0166113 1 
2965 1 285.716 28.3883 -5.64461 0.0398153 1 
3017 1 134.01 20.0189 -14.7218 5.09784e-05 1 
3018 1 283.373 22.4522 -13.8262 8.92164e-05 1 
3019 1 136.06 19.943 -12.7188 0.000162513 1 
3020 1 137.277 22.3754 -11.8207 0.000209931 1 
3021 1 134.568 21.7905 -11.1252 0.00062266 1 
3022 1 283.93 24.2222 -10.2219 0.000730924 1 
3023 1 136.618 21.7099 -9.1117 0.00152024 1 
3024 1 285.973 24.1386 -8.20381 0.00218316 1 
3025 1 283.273 23.5647 -7.52154 0.00537016 1 
3026 1 284.492 25.9821 -6.58881 0.0089089 1 
3027 1 285.325 23.4702 -5.47744 0.0176202 1 
3069 1 133.62 15.077 -14.509 2.47764e-05 1 
3070 1 134.84 17.5104 -13.6154 6.93695e-05 1 
3071 1 132.126 16.9239 -12.9121 0.000108605 1 
3072 1 133.348 19.3576 -12.0204 0.000365462 1 
3073 1 134.179 16.85 -10.9124 0.000554048 1 
3074 1 135.401 19.28 -10.0115 0.00128725 1 
3075 1 132.685 18.6993 -9.32548 0.00215573 1 
3076 1 133.909 21.1325 -8.43354 0.00362892 1 
3077 1 134.743 18.6217 -7.30488 0.00702131 1 
3078 1 135.965 21.0505 -6.40666 0.00865498 1 
3079 1 133.243 20.4878 -5.76715 0.0174286 1 
3114 1 129.688 12.0556 -14.6916 3.98654e-05 1 
3115 1 130.906 14.4896 -13.8017 5.11504e-05 1 
3116 1 131.736 11.983 -12.6961 0.000104645 1 
3117 1 132.957 14.417 -11.8063 0.000203083 1 
3118 1 130.239 13.8283 -11.0964 0.000365475 1 
3119 1 131.46 16.2645 -10.2121 0.00057621 1 
3120 1 132.29 13.7616 -9.10885 0.00132354 1 
3121 1 133.518 16.1959 -8.21676 0.00324083 1 
3122 1 130.786 15.6077 -7.51525 0.00289207 1 
3123 1 132.016 18.0482 -6.64386 0.0140864 1 
3124 1 132.846 15.5589 -5.53801 0.0234556 1 
3151 1 129.301 7.11458 -14.4777 4.57712e-05 1 
3152 1 130.518 9.549 -13.5867 7.37727e-05 1 
3153 1 127.805 8.95944 -12.8745 0.000128321 1 
3154 1 129.021 11.3934 -11.9828 0.000282372 1 
3155 1 129.851 8.88921 -10.881 0.000468162 1 
3156 1 131.069 11.3249 -9.99272 0.000785073 1 
3157 1 128.353 10.7293 -9.26767 0.00163015 1 
3158 1 129.567 13.1653 -8.38758 0.00234766 1 
3159 1 130.396 10.6676 -7.28881 0.00586415 1 
3160 1 131.617 13.1147 -6.41998 0.00919491 1 
3161 1 128.899 12.4952 -5.66229 0.0317518 1 
3178 1 125.373 4.09296 -14.6596 3.33588e-05 1 
3179 1 126.589 6.52554 -13.7666 7.14776e-05 1 
3180 1 127.419 4.01715 -12.6597 0.000170028 1 
3181 1 128.635 6.45264 -11.7708 0.000276016 1 
3182 1 125.926 5.86129 -11.0544 0.000378241 1 
3183 1 127.141 8.29569 -10.1612 0.000631765 1 
3184 1 127.967 5.7884 -9.06067 0.00134553 1 
3185 1 129.183 8.22803 -8.1721 0.00218619 1 
3186 1 126.482 7.62835 -7.4378 0.00580349 1 
3187 1 127.687 10.0579 -6.53739 0.0286512 1 
3188 1 128.517 7.55629 -5.45247 0.0551772 1 
3195 1 126.204 1.58435 -13.5515 7.00418e-05 1 
3196 1 123.495 0.998874 -12.8462 0.000106652 1 
3197 1 124.711 3.42934 -11.9491 0.0001767 1 
3198 1 125.543 0.918827 -10.8401 0.000383478 1 
3199 1 126.754 3.35083 -9.94674 0.00101023 1 
3200 1 124.053 2.76549 -9.23504 0.00106648 1 
3201 1 125.267 5.19424 -8.33416 0.00242228 1 
3202 1 126.091 2.67714 -7.22304 0.00808864 1 
3203 1 127.304 5.11561 -6.3401 0.0142074 1 
3204 1 124.631 4.52318 -5.59472 0.0176325 1 
3210 1 122.838 0.337192 -10.1402 0.000827304 1 
3211 1 124.887 0.250802 -8.1255 0.00272399 1 
3212 1 123.404 2.10713 -6.51437 0.00705578 1 
4105 1 289.293 37.7797 -13.1513 0.000141916 1 
4183 1 286.859 32.9175 -14.9405 3.31838e-05 1 
4184 1 288.076 35.3483 -14.044 6.6184e-05 1 
4185 1 285.367 34.7605 -13.3369 0.000105338 1 
4186 1 286.583 37.1906 -12.4411 0.000170743 1 
4187 1 287.412 34.6825 -11.33 0.000318546 1 
4188 1 288.627 37.1126 -10.4376 0.00100539 1 
4189 1 285.923 36.5215 -9.72437 0.000977562 1 
4190 1 287.961 36.4354 -7.71053 0.00903429 1 
4260 1 284.149 32.3309 -14.2359 4.74981e-05 1 
4261 1 284.979 29.8236 -13.1299 9.6027e-05 1 
4262 1 286.196 32.2532 -12.2289 0.000166253 1 
4263 1 283.489 31.6679 -11.5267 0.000265806 1 
4264 1 284.707 34.0943 -10.6225 0.000610985 1 
4265 1 285.536 31.5856 -9.5115 0.00114742 1 
4266 1 286.75 34.0108 -8.60673 0.00223732 1 
4267 1 284.056 33.4246 -7.89904 0.00395017 1 
4268 1 285.274 35.8435 -6.99569 0.0064895 1 
4269 1 286.11 33.3239 -5.8573 0.0143466 1 
4336 1 282.542 24.9612 -14.931 5.21749e-05 1 
4337 1 283.761 27.3932 -14.0313 5.85336e-05 1 
4338 1 281.048 26.8094 -13.3327 0.000146796 1 
4339 1 282.269 29.2398 -12.4304 0.000166261 1 
4340 1 283.1 26.7318 -11.3264 0.00034798 1 
4341 1 284.319 29.1596 -10.4188 0.000599871 1 
4342 1 281.609 28.5814 -9.72886 0.00110707 1 
4343 1 282.835 31.0063 -8.81738 0.00210984 1 
4344 1 283.667 28.4959 -7.7057 0.00539311 1 
4345 1 284.893 30.9135 -6.7817 0.00916512 1 
4346 1 282.179 30.355 -6.12547 0.00727491 1 
4347 1 283.397 32.7605 -5.17669 0.0175947 1 
4404 1 279.828 24.376 -14.2309 0.000107016 1 
4405 1 280.659 21.8669 -13.1274 0.000193369 1 
4406 1 281.88 24.3009 -12.2307 0.00032803 1 
4407 1 279.162 23.7178 -11.5361 0.000521148 1 
4408 1 280.385 26.153 -10.6369 0.000949389 1 
4409 1 281.217 23.6442 -9.53935 0.00211465 1 
4410 1 282.441 26.0732 -8.62452 0.0023034 1 
4411 1 279.715 25.5031 -7.95766 0.00521361 1 
4412 1 280.946 27.9282 -7.04099 0.00415835 1 
4413 1 281.767 25.4253 -5.93303 0.0143201 1 
39542 1 13.6837 0.851197 -5.11131 0.0351084 1 
4462 1 130.076 16.9972 -14.9085 2.46832e-05 1 
4463 1 131.295 19.432 -14.0187 6.90465e-05 1 
4464 1 128.579 18.843 -13.3118 8.11543e-05 1 
4465 1 277.941 21.28 -12.4256 0.000219467 1 
4466 1 130.629 18.7709 -11.3194 0.000339179 1 
4467 1 131.85 21.2082 -10.4346 0.00105149 1 
4468 1 129.125 20.6181 -9.73169 0.0010915 1 
4469 1 278.488 23.0624 -8.85263 0.00206276 1 
4470 1 131.177 20.5541 -7.75828 0.00526327 1 
4471 1 280.547 22.9959 -6.87235 0.0111359 1 
4472 1 277.799 22.4076 -6.18171 0.00992545 1 
4473 1 279.026 24.8578 -5.30834 0.0423778 1 
4512 1 127.363 16.4075 -14.1995 5.03162e-05 1 
4513 1 128.192 13.8994 -13.0901 0.000149103 1 
4514 1 129.41 16.3345 -12.2039 0.000145691 1 
4515 1 126.697 15.7413 -11.4902 0.000279667 1 
4516 1 127.91 18.1778 -10.6077 0.000461682 1 
4517 1 128.74 15.6694 -9.49734 0.000772756 1 
4518 1 129.957 18.1095 -8.62405 0.00157255 1 
4519 1 127.237 17.5056 -7.89818 0.00243462 1 
4520 1 128.441 19.9501 -7.04002 0.00658987 1 
4521 1 129.273 17.4444 -5.92926 0.00993285 1 
4551 1 125.76 9.03318 -14.8738 3.00021e-05 1 
4552 1 126.976 11.466 -13.9809 6.98865e-05 1 
4553 1 124.267 10.8767 -13.2717 8.74043e-05 1 
4554 1 125.483 13.3081 -12.3781 0.000222892 1 
4555 1 126.312 10.8011 -11.267 0.000358743 1 
4556 1 127.525 13.2329 -10.3758 0.0009862 1 
4557 1 124.823 12.6396 -9.6585 0.00126863 1 
4558 1 126.032 15.0694 -8.77315 0.00133026 1 
4559 1 126.861 12.5591 -7.6455 0.00804349 1 
4560 1 128.069 14.9959 -6.78133 0.00452103 1 
4561 1 125.376 14.383 -6.04099 0.00775321 1 
4562 1 126.559 16.8133 -5.17749 0.0600447 1 
4582 1 123.05 8.44553 -14.1659 3.40741e-05 1 
4583 1 123.88 5.93784 -13.0573 7.32416e-05 1 
4584 1 125.097 8.36932 -12.1624 0.000141959 1 
4585 1 122.39 7.78292 -11.4557 0.000191879 1 
4586 1 123.609 10.2119 -10.5577 0.000530458 1 
4587 1 124.44 7.70498 -9.44601 0.000859423 1 
4588 1 125.652 10.1335 -8.54252 0.00314717 1 
4589 1 122.962 9.55016 -7.83732 0.00482733 1 
4590 1 124.174 11.9664 -6.92056 0.00725276 1 
4591 1 125.025 9.46037 -5.78782 0.0246119 1 
4604 1 121.445 1.0767 -14.8497 3.01678e-05 1 
4605 1 122.663 3.5073 -13.9533 3.78622e-05 1 
4606 1 119.95 2.92394 -13.2497 7.60784e-05 1 
4607 1 121.17 5.35371 -12.3523 0.000103316 1 
4608 1 122.003 2.84685 -11.2461 0.000265236 1 
4609 1 123.221 5.27528 -10.3449 0.000436473 1 
4610 1 120.511 4.69686 -9.64679 0.000903321 1 
4611 1 121.736 7.12438 -8.74647 0.0017249 1 
4612 1 122.571 4.61625 -7.6291 0.00377155 1 
4613 1 123.798 7.0428 -6.72411 0.00780345 1 
4614 1 121.08 6.47883 -6.05543 0.00867441 1 
4615 1 122.312 8.90487 -5.13858 0.014785 1 
4621 1 118.731 0.492767 -14.1462 5.59053e-05 1 
4622 1 120.783 0.41692 -12.146 0.000248422 1 
4623 1 119.287 2.2676 -10.5484 0.000585856 1 
4624 1 121.347 2.19206 -8.54379 0.00197718 1 
4625 1 118.62 1.61799 -7.85925 0.00341831 1 
4626 1 119.848 4.04939 -6.95389 0.00521334 1 
4627 1 120.687 1.5485 -5.86093 0.00833769 1 
4634 1 117.939 0.977801 -5.18736 0.0196493 1 
5647 1 284.536 37.2687 -14.446 4.66295e-05 1 
5648 1 281.825 36.6841 -13.743 7.83696e-05 1 
5649 1 283.876 36.6043 -11.736 0.000279008 1 
5723 1 280.606 34.254 -14.6402 4.40626e-05 1 
5724 1 281.437 31.7469 -13.5349 8.23439e-05 1 
5725 1 282.658 34.1758 -12.6349 0.000172035 1 
5726 1 279.944 33.5943 -11.9371 0.00028605 1 
5727 1 281.166 36.0232 -11.0391 0.000539013 1 
5728 1 282.001 33.5139 -9.92769 0.00113757 1 
5729 1 283.223 35.9384 -9.02449 0.001789 1 
5730 1 280.51 35.3658 -8.34361 0.00262666 1 
5731 1 281.734 37.7971 -7.44471 0.00550667 1 
5732 1 282.572 35.2756 -6.31794 0.00835663 1 
5733 1 283.791 37.7074 -5.41336 0.0148858 1 
5801 1 280.217 29.3165 -14.4346 5.49039e-05 1 
5802 1 277.501 28.7319 -13.733 9.60394e-05 1 
5803 1 278.722 31.164 -12.8347 0.000116047 1 
5804 1 279.553 28.6589 -11.7343 0.000330615 1 
5805 1 280.776 31.088 -10.8324 0.000601261 1 
5806 1 278.053 30.5074 -10.1349 0.000638162 1 
5807 1 279.281 32.9387 -9.24126 0.00138696 1 
5808 1 280.113 30.4347 -8.14171 0.0033055 1 
5809 1 281.343 32.8578 -7.22741 0.0040919 1 
5810 1 278.609 32.2907 -6.55992 0.00777169 1 
5811 1 279.843 34.7144 -5.66222 0.0215619 1 
5873 1 276.282 26.2973 -14.6293 6.98382e-05 1 
5874 1 277.111 23.7893 -13.5283 0.000136664 1 
5875 1 278.331 26.2257 -12.6343 0.000253283 1 
5876 1 275.612 25.6375 -11.9293 0.000354809 1 
5877 1 276.831 28.0744 -11.0339 0.000498447 1 
5878 1 277.66 25.57 -9.94317 0.00115952 1 
5879 1 278.883 28.0066 -9.04255 0.00189186 1 
5880 1 276.154 27.4173 -8.33739 0.00300384 1 
5881 1 277.373 29.8533 -7.43452 0.00686593 1 
5882 1 278.202 27.3619 -6.36856 0.0180846 1 
5883 1 279.445 29.7943 -5.47946 0.0295078 1 
5937 1 275.893 21.3524 -14.4182 5.30875e-05 1 
5938 1 273.18 20.7623 -13.7094 6.97605e-05 1 
5939 1 274.395 23.199 -12.8196 0.000175246 1 
5940 1 127.08 20.6885 -11.7154 0.000324851 1 
5941 1 276.44 23.1287 -10.8323 0.000636375 1 
5942 1 273.725 22.5331 -10.1135 0.00109758 1 
5943 1 274.939 24.9754 -9.22995 0.0018174 1 
5944 1 275.761 22.4635 -8.13829 0.002959 1 
5945 1 276.978 24.9152 -7.26125 0.0058271 1 
5946 1 274.264 24.3023 -6.52522 0.0193132 1 
5947 1 275.463 26.7494 -5.63951 0.108607 1 
5992 1 123.821 18.3276 -14.6001 3.48353e-05 1 
5993 1 124.653 15.8174 -13.4903 9.6776e-05 1 
5994 1 125.867 18.2517 -12.6013 0.000130744 1 
5995 1 123.159 17.6623 -11.8926 0.0002192 1 
5996 1 124.371 20.0959 -11.0014 0.000403657 1 
5997 1 125.201 17.5826 -9.89056 0.000682437 1 
5998 1 126.407 20.0192 -9.00858 0.00191802 1 
5999 1 123.708 19.4248 -8.2852 0.00322914 1 
6000 1 273.056 21.8578 -7.39467 0.0104841 1 
6001 1 125.73 19.3373 -6.28862 0.0315929 1 
6002 1 275.082 21.7806 -5.43603 0.0507725 1 
6037 1 123.437 13.3851 -14.3821 5.54528e-05 1 
6038 1 120.726 12.7988 -13.6773 8.97775e-05 1 
6039 1 121.944 15.2303 -12.7853 0.000164175 1 
6040 1 122.777 12.7201 -11.6721 0.000338943 1 
6041 1 123.991 15.1499 -10.778 0.000599641 1 
6042 1 121.288 14.5669 -10.08 0.00123491 1 
6043 1 122.501 16.9957 -9.18203 0.0015342 1 
6044 1 123.336 14.4791 -8.05622 0.00395422 1 
6045 1 124.539 16.9063 -7.16976 0.00642089 1 
6046 1 121.858 16.3358 -6.46691 0.0101955 1 
6047 1 123.07 18.7498 -5.54138 0.0192101 1 
6072 1 119.507 10.3674 -14.5689 3.25807e-05 1 
6073 1 120.338 7.86014 -13.4601 4.9603e-05 1 
6074 1 121.558 10.2902 -12.5665 0.000141776 1 
6075 1 118.845 9.70611 -11.8633 0.000217741 1 
6076 1 120.068 12.1369 -10.9731 0.000599741 1 
6077 1 120.902 9.62958 -9.85906 0.00111977 1 
6078 1 122.124 12.0557 -8.95912 0.00228323 1 
6079 1 119.41 11.48 -8.27651 0.00301255 1 
6080 1 120.638 13.9107 -7.38356 0.00855946 1 
6081 1 121.471 11.4018 -6.25055 0.0109324 1 
6082 1 122.685 13.8149 -5.31949 0.0308447 1 
6100 1 119.118 5.42992 -14.3544 2.68664e-05 1 
6101 1 116.404 4.84431 -13.6471 6.65434e-05 1 
6102 1 117.623 7.27515 -12.7536 9.8839e-05 1 
6103 1 118.455 4.77098 -11.6485 0.000208414 1 
6104 1 119.677 7.20067 -10.7539 0.000377614 1 
6105 1 116.956 6.61472 -10.0469 0.000631286 1 
6106 1 118.181 9.04768 -9.16268 0.000956402 1 
6107 1 119.012 6.5473 -8.05468 0.00189045 1 
6108 1 120.242 8.97966 -7.16398 0.00513367 1 
6109 1 117.505 8.39236 -6.46725 0.00512415 1 
6110 1 118.735 10.8366 -5.5908 0.0220372 1 
6119 1 115.186 2.41264 -14.5431 4.16421e-05 1 
6120 1 117.234 2.33983 -12.545 0.000155878 1 
6121 1 114.518 1.75104 -11.8353 0.000257803 1 
6122 1 115.736 4.18349 -10.9388 0.000438123 1 
6123 1 116.564 1.6821 -9.84338 0.000988215 1 
6124 1 117.787 4.11532 -8.9467 0.00131483 1 
6125 1 115.063 3.51897 -8.22611 0.00214658 1 
6126 1 116.282 5.95088 -7.33771 0.00349207 1 
6127 1 117.108 3.45962 -6.24898 0.00775011 1 
6128 1 118.333 5.90424 -5.36671 0.0121426 1 
6135 1 113.848 1.0858 -9.12429 0.00123455 1 
6136 1 115.887 1.02194 -7.14353 0.0046133 1 
6137 1 113.177 0.409098 -6.40377 0.0166113 1 
6138 1 114.386 2.84123 -5.50436 0.0695898 1 
7205 1 277.891 33.6699 -13.9379 5.67953e-05 1 
7206 1 279.111 36.1013 -13.0421 0.000120622 1 
7207 1 276.393 35.5167 -12.3385 0.000166849 1 
7208 1 277.613 37.9503 -11.4456 0.00040013 1 
7209 1 278.447 35.4441 -10.3443 0.000676207 1 
7210 1 279.671 37.8771 -9.45189 0.00201017 1 
7211 1 276.941 37.2952 -8.75352 0.0026297 1 
7212 1 279.008 37.2316 -6.78518 0.01676 1 
7282 1 276.671 31.2377 -14.8343 3.31288e-05 1 
7283 1 273.957 30.6497 -14.1285 4.71661e-05 1 
7284 1 275.175 33.0834 -13.2327 8.04997e-05 1 
7285 1 276.004 30.5783 -12.1309 0.000171863 1 
7286 1 277.224 33.0114 -11.2368 0.000288544 1 
7287 1 274.505 32.4217 -10.5269 0.000483989 1 
7288 1 275.722 34.8573 -9.63803 0.00101946 1 
7289 1 276.552 32.3539 -8.53986 0.00151063 1 
7290 1 277.776 34.7925 -7.65815 0.0038512 1 
7291 1 275.04 34.1946 -6.93788 0.00794675 1 
7292 1 276.254 36.6451 -6.06933 0.0173383 1 
7357 1 273.567 25.708 -13.9222 8.54535e-05 1 
7358 1 274.785 28.1438 -13.027 0.00013991 1 
7359 1 272.073 27.5527 -12.3173 0.000184942 1 
7360 1 273.289 29.9869 -11.4205 0.000300565 1 
7361 1 274.114 27.4817 -10.3206 0.00082347 1 
7362 1 275.331 29.9179 -9.42633 0.000904474 1 
7363 1 272.622 29.3185 -8.70341 0.00301388 1 
7364 1 273.832 31.7538 -7.81477 0.00322911 1 
7365 1 274.66 29.2524 -6.71177 0.0199343 1 
7366 1 275.871 31.6978 -5.84208 0.0183761 1 
7367 1 273.168 31.0616 -5.0808 0.0323863 1 
7423 1 272.351 23.2722 -14.8153 3.18973e-05 1 
7424 1 269.64 22.6839 -14.1085 3.05582e-05 1 
7425 1 270.857 25.1182 -13.2143 7.70532e-05 1 
7426 1 271.685 22.6082 -12.1091 0.00016979 1 
7427 1 272.9 25.0448 -11.2165 0.000467102 1 
7428 1 270.194 24.4551 -10.5062 0.000444292 1 
7429 1 271.408 26.8874 -9.60281 0.00134921 1 
7430 1 272.234 24.3779 -8.50438 0.00312795 1 
7431 1 273.443 26.8127 -7.60365 0.0111677 1 
7432 1 270.76 26.2193 -6.86969 0.00716322 1 
7433 1 271.984 28.6328 -5.95669 0.0172929 1 
7484 1 121.111 17.7408 -13.8946 5.73623e-05 1 
7485 1 270.471 20.1737 -13.0016 8.47311e-05 1 
7486 1 267.761 19.5891 -12.2977 0.000148945 1 
7487 1 268.978 22.0214 -11.4028 0.000213655 1 
7488 1 121.667 19.5096 -10.2939 0.000593265 1 
7489 1 271.024 21.942 -9.39828 0.00106781 1 
7490 1 268.324 21.3613 -8.69713 0.00163886 1 
7491 1 269.541 23.7949 -7.79681 0.0036263 1 
7492 1 270.378 21.2733 -6.67695 0.00778697 1 
7493 1 271.588 23.7026 -5.78014 0.0197984 1 
7494 1 268.896 23.1501 -5.10554 0.0219481 1 
7533 1 119.893 15.3081 -14.7865 4.06327e-05 1 
7534 1 117.18 14.7227 -14.081 5.89661e-05 1 
7535 1 118.398 17.1563 -13.1906 0.000105647 1 
7536 1 119.233 14.6468 -12.0842 0.00029401 1 
7537 1 120.451 17.0789 -11.1914 0.000447027 1 
7538 1 117.736 16.4993 -10.4931 0.00076429 1 
7539 1 118.959 18.9321 -9.59814 0.00129818 1 
7540 1 119.797 16.4231 -8.49602 0.00349691 1 
7541 1 121.017 18.8483 -7.58146 0.00380978 1 
7542 1 118.301 18.2844 -6.91402 0.00800377 1 
7543 1 267.675 20.7088 -5.99869 0.0106592 1 
7573 1 115.961 12.2891 -14.9702 2.33449e-05 1 