ITEM: TIMESTEP
0
ITEM: NUMBER OF ATOMS
7890
ITEM: BOX BOUNDS xy xz yz pp pp ss
0.0000000000000000e+00 2.9695206741300001e+02 1.9824500079699999e+02
0.0000000000000000e+00 4.4725995339000001e+01 0.0000000000000000e+00
-9.1133551516442225e+01 9.4071124948211803e+01 0.0000000000000000e+00
ITEM: ATOMS id type x y z c_csym c_cna 
1890 1 197.379 44.5126 -14.5137 0.000196951 1 
2683 1 198.626 39.7136 -14.8285 0.000150144 1 
2685 1 199.538 41.5318 -12.8274 0.000369517 1 
2686 1 197.791 43.5852 -11.8489 0.000683811 1 
2687 1 198.203 42.6499 -9.19075 0.00253573 1 
2770 1 201.785 42.2271 -14.4688 0.000134484 1 
2771 1 200.038 44.2813 -13.4911 0.000272053 1 
2772 1 202.701 44.0506 -12.4665 0.000302406 1 
2773 1 200.452 43.3543 -10.8333 0.000820122 1 
2774 1 199.117 44.4776 -7.22303 0.0101585 1 
3565 1 197.635 34.2333 -13.4882 0.000157615 1 
3566 1 198.13 36.9713 -14.1583 0.000154894 1 
3567 1 198.548 36.0458 -11.4787 0.000423749 1 
3651 1 203.035 37.4302 -14.7752 6.74368e-05 1 
3652 1 200.791 36.7373 -13.1307 0.000179474 1 
3653 1 201.287 39.4805 -13.8021 0.000165301 1 
3654 1 199.042 38.7851 -12.155 0.000489373 1 
3655 1 201.706 38.5522 -11.1317 0.000524541 1 
3656 1 199.461 37.8553 -9.47981 0.00179629 1 
3657 1 199.953 40.6001 -10.1634 0.00124864 1 
3658 1 197.708 39.8962 -8.49902 0.00356774 1 
3659 1 200.371 39.6648 -7.50222 0.00520018 1 
3660 1 198.133 38.9586 -5.80638 0.00911235 1 
3661 1 198.618 41.7011 -6.53244 0.0113436 1 
3662 1 199.031 40.7578 -3.83068 0.20173 1 
3663 1 198.06 41.7742 -0.59464 11.7121 5 
3747 1 206.195 39.9412 -14.4102 5.93831e-05 1 
3748 1 203.951 39.2482 -12.7727 0.000183263 1 
3749 1 204.448 41.9952 -13.4397 0.00015265 1 
3750 1 202.202 41.3003 -11.8048 0.000371187 1 
3751 1 204.868 41.0707 -10.7765 0.000543306 1 
3752 1 202.621 40.3721 -9.1458 0.00118352 1 
3753 1 203.118 43.1255 -9.81173 0.000659277 1 
3754 1 200.866 42.4201 -8.18507 0.00280701 1 
3755 1 203.536 42.1992 -7.16276 0.00236468 1 
3756 1 201.278 41.4722 -5.5399 0.0300047 1 
3757 1 201.786 44.2515 -6.22078 0.0138975 1 
3758 1 199.534 43.5257 -4.6228 0.0976147 1 
3759 1 202.225 43.295 -3.64084 7.16944 5 
3760 1 200.119 42.5831 -2.03989 5.79059 5 
3845 1 209.354 42.4517 -14.0403 6.38753e-05 1 
3846 1 207.112 41.7628 -12.4057 0.000188238 1 
3847 1 207.609 44.5081 -13.0661 0.000114566 1 
3848 1 205.366 43.82 -11.437 0.000428931 1 
3849 1 208.029 43.5865 -10.3976 0.000595984 1 
3850 1 205.786 42.8994 -8.78141 0.00182803 1 
3851 1 204.452 44.0283 -5.1765 0.0368932 1 
3933 1 210.268 44.2719 -12.0305 0.00015667 1 
4618 1 198.883 29.4474 -13.808 8.29259e-05 1 
4619 1 197.557 30.584 -10.1445 0.000719295 1 
4703 1 199.381 32.1847 -14.4709 6.92488e-05 1 
4704 1 202.042 31.9505 -13.4367 7.644e-05 1 
4705 1 199.8 31.2648 -11.7916 0.000226792 1 
4706 1 200.296 33.9988 -12.4581 0.000225499 1 
4707 1 198.054 33.3129 -10.8052 0.000502162 1 
4708 1 200.718 33.0771 -9.77457 0.000842192 1 
4709 1 198.477 32.3985 -8.11726 0.00246592 1 
4710 1 198.971 35.123 -8.79549 0.00123228 1 
4711 1 199.404 34.2069 -6.10856 0.0112924 1 
4712 1 197.66 36.2523 -5.08498 0.0311438 1 
4713 1 198.138 35.3992 -2.2951 0.300354 1 
4798 1 202.539 34.6886 -14.1051 9.05432e-05 1 
4799 1 205.2 34.4546 -13.0703 0.000116777 1 
4800 1 202.959 33.7641 -11.4248 0.000335241 1 
4801 1 203.455 36.5042 -12.1004 0.000160887 1 
4802 1 201.212 35.8114 -10.4533 0.000429521 1 
4803 1 203.877 35.5807 -9.42428 0.000544538 1 
4804 1 201.638 34.8891 -7.77265 0.000919583 1 
4805 1 202.131 37.6242 -8.45918 0.00227122 1 
4806 1 199.888 36.9273 -6.80045 0.00797299 1 
4807 1 202.566 36.7052 -5.77542 0.0204348 1 
4808 1 200.32 35.988 -4.11967 0.122245 1 
4809 1 200.801 38.7441 -4.84716 0.0458956 1 
4810 1 198.588 38.0296 -3.09377 0.166351 1 
4811 1 201.282 37.7637 -2.28824 5.15179 5 
4812 1 199.158 37.1743 -0.238867 7.02143 5 
4813 1 199.71 39.7349 -1.15217 3.7994 5 
4896 1 207.443 35.1454 -14.7127 4.61086e-05 1 
4898 1 205.698 37.197 -13.7419 6.33922e-05 1 
4899 1 208.359 36.9635 -12.7063 9.57285e-05 1 
4900 1 206.119 36.2735 -11.0671 0.000244182 1 
4901 1 206.616 39.017 -11.738 0.000266541 1 
4902 1 204.374 38.3222 -10.102 0.000812823 1 
4903 1 207.042 38.0984 -9.06304 0.00156148 1 
4904 1 204.804 37.4013 -7.42506 0.00772552 1 
4905 1 205.293 40.1499 -8.11816 0.00258383 1 
4906 1 203.049 39.4521 -6.49362 0.0101479 1 
4907 1 205.731 39.2416 -5.46884 0.0400673 1 
4908 1 203.506 38.5886 -3.86326 0.23976 1 
4909 1 203.96 41.2931 -4.50734 0.0816066 1 
4910 1 201.754 40.5496 -2.87743 4.54389 5 
4911 1 204.262 40.4657 -1.74369 6.88356 5 
4912 1 202.146 38.4737 0.133387 4.4984 5 
4913 1 201.7 41.2651 -0.0848302 5.34226 5 
4997 1 210.6 37.6522 -14.3466 5.6445e-05 1 
4999 1 208.856 39.7068 -13.3749 8.78415e-05 1 
5000 1 211.514 39.4697 -12.3409 0.000184921 1 
5001 1 209.277 38.7839 -10.6976 0.000672086 1 
5002 1 209.771 41.5275 -11.3682 0.000369834 1 
5003 1 207.535 40.8425 -9.73613 0.00120887 1 
5004 1 210.192 40.6071 -8.6887 0.00264653 1 
5005 1 207.968 39.9365 -7.06251 0.0110319 1 
5006 1 208.452 42.6687 -7.72065 0.00851474 1 
5007 1 206.205 41.9865 -6.13236 0.0222853 1 
5008 1 208.853 41.7797 -4.99971 0.124267 1 
5009 1 206.567 41.0374 -3.48791 0.46684 1 
5010 1 207.08 43.8644 -4.17535 0.566224 1 
5011 1 204.795 43.0717 -2.43596 6.75428 5 
5012 1 207.487 42.8197 -1.78149 11.0918 5 
5096 1 213.757 40.159 -13.9799 0.000135212 1 
5097 1 214.257 42.9054 -14.6423 9.78022e-05 1 
5098 1 212.012 42.2149 -13.007 0.000142296 1 
5099 1 214.668 41.9762 -11.9765 0.000386714 1 
5100 1 212.424 41.2877 -10.3359 0.000693791 1 
5101 1 212.923 44.0331 -10.9987 0.000343938 1 
5102 1 210.683 43.3472 -9.35553 0.00121172 1 
5103 1 213.328 43.1022 -8.32927 0.00186264 1 
5104 1 211.093 42.4233 -6.66132 0.0107002 1 
5105 1 209.361 44.5083 -5.71637 0.0439923 1 
5106 1 212.004 44.2421 -4.66245 0.0289106 1 
5107 1 209.804 43.6395 -3.06957 0.681892 5 
5192 1 216.918 42.6692 -13.6072 0.000188127 1 
5193 1 217.831 44.4876 -11.5985 0.000315092 1 
5194 1 215.578 43.7927 -9.97251 0.00076066 1 
5824 1 197.879 23.9623 -12.4857 0.000174365 1 
5908 1 200.125 24.654 -14.1262 4.0197e-05 1 
5909 1 200.626 27.3955 -14.7883 2.94458e-05 1 
5910 1 198.382 26.7073 -13.1479 0.000116211 1 
5911 1 201.042 26.4746 -12.1134 0.000150974 1 
5912 1 198.797 25.7867 -10.479 0.000569237 1 
5913 1 199.3 28.5296 -11.1333 0.000360972 1 
5914 1 199.719 27.6153 -8.46578 0.00191999 1 
5915 1 197.471 26.9339 -6.84859 0.00694288 1 
5916 1 197.978 29.6788 -7.47198 0.00501067 1 
5917 1 198.394 28.7873 -4.82663 0.0547872 1 
6001 1 203.286 27.1622 -13.7518 3.93173e-05 1 
6002 1 203.786 29.9008 -14.4144 3.25286e-05 1 
6003 1 201.543 29.2137 -12.7727 8.96295e-05 1 
6004 1 204.203 28.9785 -11.7334 0.000125685 1 
6005 1 201.962 28.2944 -10.0945 0.000412265 1 
6006 1 202.462 31.0294 -10.7553 0.000221353 1 
6007 1 200.221 30.3496 -9.11254 0.00106265 1 
6008 1 202.883 30.1102 -8.07123 0.00116473 1 
6009 1 200.644 29.4424 -6.43771 0.00828654 1 
6010 1 201.144 32.1572 -7.08245 0.00607996 1 
6011 1 198.905 31.4961 -5.41663 0.0240223 1 
6012 1 201.583 31.2427 -4.36667 0.0526744 1 
6013 1 199.329 30.6094 -2.7118 0.388653 1 
6014 1 199.889 33.3259 -3.39915 0.106662 1 
6015 1 197.692 32.7661 -1.85033 1.65097 1 
6016 1 200.492 32.3693 -0.693487 2.81347 5 
6101 1 206.445 29.666 -13.376 4.37843e-05 1 
6102 1 206.945 32.4047 -14.0431 5.25787e-05 1 
6103 1 204.703 31.7155 -12.3995 9.66285e-05 1 
6104 1 207.361 31.4804 -11.3604 0.000153189 1 
6105 1 205.121 30.7919 -9.71404 0.000332764 1 
6106 1 205.62 33.5299 -10.3889 0.000704601 1 
6107 1 203.381 32.8409 -8.7376 0.00201951 1 
6108 1 206.038 32.6039 -7.70078 0.00720915 1 
6109 1 203.808 31.9117 -6.03809 0.0205017 1 
6110 1 204.304 34.6698 -6.74775 0.00796509 1 
6111 1 202.075 33.9668 -5.09584 0.0207991 1 
6112 1 204.741 33.7628 -4.10482 0.0971775 1 
6113 1 202.559 33.0948 -2.40825 0.368165 1 
6114 1 203.015 35.754 -3.09532 0.452531 1 
6115 1 200.804 35.1342 -1.31297 2.61172 5 
6116 1 203.291 35.1512 -0.208741 7.29775 5 
6200 1 211.847 32.858 -14.6467 7.4668e-05 1 
6201 1 209.603 32.1689 -13.0042 9.04989e-05 1 
6202 1 210.102 34.9093 -13.6756 7.81166e-05 1 
6203 1 207.861 34.2207 -12.0333 0.000183314 1 
6204 1 210.52 33.9844 -10.9944 0.00030367 1 
6205 1 208.279 33.2985 -9.35122 0.00145813 1 
6206 1 208.781 36.0441 -10.0303 0.00110461 1 
6207 1 206.541 35.3562 -8.39652 0.00307015 1 
6208 1 209.208 35.1389 -7.36224 0.016674 1 
6209 1 206.962 34.4569 -5.74643 0.0474818 1 
6210 1 207.478 37.1876 -6.38573 0.0145223 1 
6211 1 205.247 36.5178 -4.71496 0.103753 1 
6212 1 207.936 36.2836 -3.69991 0.16325 1 
6213 1 205.725 35.5444 -2.05851 0.860124 1 
6214 1 206.244 38.4244 -2.80142 0.560629 1 
6215 1 204.098 37.6265 -1.41484 8.80159 5 
6216 1 206.817 37.5094 -0.313893 7.48959 5 
6301 1 215.005 35.3608 -14.278 0.000167356 1 
6302 1 212.761 34.6705 -12.6371 0.000211098 1 
6303 1 213.259 37.4136 -13.3114 0.000157236 1 
6304 1 211.018 36.7269 -11.6705 0.000220867 1 
6305 1 213.674 36.4844 -10.6351 0.000548891 1 
6306 1 211.44 35.8075 -8.99274 0.00199658 1 
6307 1 211.931 38.5452 -9.66329 0.00086319 1 
6308 1 209.706 37.8685 -8.00752 0.00729062 1 
6309 1 212.355 37.629 -6.97497 0.00436125 1 
6310 1 210.158 36.9708 -5.28623 0.0909371 1 
6311 1 210.621 39.7011 -5.99086 0.0224953 1 
6312 1 208.419 39.0373 -4.40744 0.07157 1 
6313 1 211.127 38.8241 -3.26337 0.357291 1 
6314 1 208.95 38.1494 -1.78864 1.28394 5 
6315 1 209.313 40.8315 -2.31742 0.629056 1 
6316 1 206.919 40.3979 -0.615184 7.25298 5 
6400 1 215.505 38.1052 -14.9484 0.000113456 1 
6401 1 218.166 37.8678 -13.9089 0.000184854 1 
6402 1 215.918 37.1726 -12.2759 0.000394174 1 
6403 1 216.417 39.9205 -12.9461 0.000294891 1 
6404 1 214.17 39.2285 -11.3097 0.000517248 1 
6405 1 216.827 38.9848 -10.2818 0.00121269 1 
6406 1 214.582 38.2958 -8.63517 0.0023895 1 
6407 1 215.075 41.0436 -9.31413 0.0018388 1 
6408 1 212.836 40.3626 -7.65794 0.00339844 1 
6409 1 215.48 40.1067 -6.65536 0.00986801 1 
6410 1 213.265 39.4405 -4.97113 0.023203 1 
6411 1 213.733 42.1675 -5.65271 0.00931239 1 
6412 1 211.519 41.5116 -3.94354 0.108982 1 
6413 1 214.122 41.202 -2.95517 0.302807 1 
6414 1 211.924 40.6751 -1.01783 2.40757 5 
6415 1 212.432 43.2968 -1.93053 0.714851 5 
6416 1 209.983 42.9364 -0.451603 9.03258 5 
36657 2 96.401 0.940576 0.796128 6.59858 5 
6500 1 218.666 40.6155 -14.5744 0.000132151 1 
6501 1 221.329 40.3801 -13.5299 0.000157131 1 
6502 1 219.079 39.6825 -11.9088 0.000516871 1 
6503 1 219.58 42.4336 -12.5686 0.000347251 1 
6504 1 217.328 41.7375 -10.947 0.000772084 1 
6505 1 219.992 41.5008 -9.91306 0.00181849 1 
6506 1 217.732 40.7985 -8.2984 0.00357244 1 
6507 1 218.24 43.5548 -8.94465 0.00147317 1 
6508 1 215.979 42.8536 -7.31923 0.00353823 1 
6509 1 218.638 42.6039 -6.30916 0.00649201 1 
6510 1 216.37 41.8999 -4.6662 0.0194708 1 
6511 1 214.635 43.9692 -3.68203 0.0622319 1 
6512 1 217.311 43.6584 -2.6859 7.24551 5 
6513 1 215.159 42.9294 -1.13568 8.49959 5 
6598 1 221.829 43.1284 -14.1903 0.000124812 1 
6599 1 224.49 42.8942 -13.1432 0.000156298 1 
6600 1 222.244 42.1991 -11.5233 0.000510601 1 
6601 1 220.494 44.2531 -10.5585 0.000589643 1 
6602 1 223.159 44.0194 -9.5087 0.000761557 1 
6603 1 220.905 43.3202 -7.90725 0.00378571 1 
6604 1 219.549 44.3779 -4.31406 0.0690625 1 
6686 1 226.733 43.589 -14.77 6.26473e-05 1 
7174 1 99.5034 17.3516 -14.8053 9.18604e-05 1 
7246 1 102.661 19.8614 -14.4411 3.95998e-05 1 
7247 1 100.415 19.1666 -12.7951 0.000194805 1 
7248 1 100.916 21.9104 -13.4624 8.00597e-05 1 
7249 1 98.6701 21.2145 -11.8169 0.000336288 1 
7250 1 101.328 20.9834 -10.7895 0.0003127 1 
7251 1 99.0803 20.2813 -9.13988 0.00137445 1 
7252 1 198.291 23.0341 -9.81673 0.000884016 1 
7253 1 99.9897 22.0944 -7.15217 0.00562391 1 
7254 1 197.376 23.214 -3.56201 0.103546 1 
7335 1 105.821 22.3712 -14.0692 2.29443e-05 1 
7336 1 103.576 21.6794 -12.4297 7.483e-05 1 
7337 1 202.785 24.4218 -13.0909 4.85759e-05 1 
7338 1 200.539 23.7304 -11.4535 0.000184538 1 
7339 1 104.491 23.4988 -10.4168 0.000244932 1 
7340 1 102.242 22.8025 -8.78551 0.000996928 1 
7341 1 201.457 25.554 -9.44317 0.00100827 1 
7342 1 199.208 24.862 -7.82214 0.00278449 1 
7343 1 201.867 24.6305 -6.78458 0.00933285 1 
7344 1 199.609 23.9171 -5.18548 0.0131562 1 
7345 1 200.136 26.699 -5.81655 0.0133246 1 
7346 1 197.887 25.9985 -4.23938 0.0214347 1 
7347 1 200.522 25.7383 -3.20718 0.0934128 1 
7348 1 198.258 25.0453 -1.60095 7.19313 5 
7349 1 198.821 27.8379 -2.2694 0.30028 1 
7433 1 205.029 25.1114 -14.7305 1.63939e-05 1 
7434 1 207.687 24.8773 -13.6923 4.0235e-05 1 
7435 1 205.443 24.1884 -12.0525 7.43884e-05 1 
7436 1 205.944 26.9278 -12.7131 4.7246e-05 1 
7437 1 203.702 26.2408 -11.0744 0.000232482 1 
7438 1 206.357 26.0047 -10.0325 0.000220466 1 
7439 1 204.115 25.3198 -8.39832 0.0018916 1 
7440 1 204.619 28.056 -9.04827 0.000790921 1 
7441 1 202.381 27.3745 -7.41519 0.0030699 1 
7442 1 205.031 27.1304 -6.35076 0.00713859 1 
7443 1 202.794 26.4448 -4.72453 0.0557793 1 
7444 1 203.303 29.1888 -5.38525 0.00882063 1 
7445 1 201.066 28.531 -3.78482 0.0795559 1 
7446 1 203.718 28.279 -2.69586 0.435793 1 
7447 1 201.495 27.5239 -1.19728 3.48039 5 
7448 1 202.095 30.3073 -1.62387 2.93141 5 
7449 1 199.868 29.541 -0.180782 7.65974 5 
7533 1 208.188 27.6163 -14.3542 2.50092e-05 1 
7534 1 210.844 27.381 -13.3157 4.70693e-05 1 
7535 1 208.6 26.692 -11.6727 7.72153e-05 1 
7536 1 209.102 29.4303 -12.336 7.7774e-05 1 
7537 1 206.86 28.7424 -10.6927 0.000128273 1 
7538 1 209.513 28.5052 -9.65051 0.000279914 1 
7539 1 207.268 27.817 -8.00663 0.000658055 1 
7540 1 207.775 30.5568 -8.67393 0.000648669 1 
7541 1 205.536 29.8649 -7.02008 0.00207484 1 
7542 1 208.177 29.6271 -5.98778 0.00352134 1 
7543 1 205.946 28.9345 -4.30318 0.0339206 1 
7544 1 206.454 31.665 -4.99781 0.0865604 1 
7545 1 204.243 30.9845 -3.31181 0.322116 1 
7546 1 206.792 30.6806 -2.17682 1.36259 5 
7547 1 204.556 29.8443 -0.266712 9.39923 5 
7548 1 205.272 32.8875 -1.49673 1.91115 5 
7631 1 213.09 28.0711 -14.9577 3.54307e-05 1 
7633 1 211.346 30.1192 -13.9792 5.79739e-05 1 
7634 1 214.003 29.8829 -12.9398 0.000100206 1 
7635 1 211.757 29.1939 -11.2957 0.000150029 1 
7636 1 212.261 31.9312 -11.9634 0.000203947 1 
7637 1 210.018 31.2444 -10.3196 0.000257949 1 
7638 1 212.673 31.0058 -9.2747 0.000701445 1 
7639 1 210.426 30.3216 -7.63281 0.0014915 1 
7640 1 210.937 33.0629 -8.30959 0.00242949 1 
7641 1 208.693 32.3812 -6.66583 0.0169939 1 
7642 1 211.342 32.153 -5.62087 0.0311532 1 
7643 1 209.07 31.4269 -3.97779 0.172482 1 
7644 1 209.64 34.2659 -4.72787 0.231094 1 
7645 1 207.409 33.5508 -3.15481 0.473767 1 
7646 1 210.055 33.3362 -2.19977 5.87092 5 
7647 1 207.913 32.6566 -0.581501 6.78838 5 
7648 1 208.332 35.2676 -0.973349 6.27674 5 
7731 1 216.251 30.5739 -14.5811 6.39174e-05 1 
7733 1 214.505 32.6203 -13.6067 0.000151037 1 
7734 1 217.164 32.3828 -12.5658 0.000249328 1 
7735 1 214.917 31.6917 -10.921 0.000483113 1 
7736 1 215.419 34.4285 -11.5967 0.000691595 1 
7737 1 213.177 33.7424 -9.9517 0.000906749 1 
7738 1 215.831 33.4938 -8.90446 0.00387221 1 
7739 1 213.592 32.817 -7.25479 0.00632093 1 
7740 1 214.093 35.5588 -7.95351 0.00277444 1 
7741 1 211.867 34.902 -6.32066 0.0240899 1 
7742 1 214.516 34.6464 -5.26597 0.0248808 1 
7743 1 212.297 34.0489 -3.66177 0.290415 1 
7744 1 212.796 36.7237 -4.27122 0.0731627 1 
7745 1 210.653 36.0959 -2.452 6.01148 5 
7746 1 213.327 35.8699 -1.44473 6.6384 5 
7747 1 211.875 35.0841 0.949725 10.3653 5 
7748 1 211.911 37.9783 -0.329649 7.33543 5 
7832 1 219.413 33.0778 -14.2035 0.000104348 1 
7833 1 219.914 35.8194 -14.8708 0.000107791 1 
7834 1 217.666 35.1225 -13.2373 0.000311125 1 
7835 1 220.328 34.8864 -12.1917 0.000374035 1 
7836 1 218.077 34.1869 -10.5553 0.00134925 1 
7837 1 218.579 36.9318 -11.2375 0.000694275 1 
7838 1 216.33 36.2366 -9.60119 0.00136989 1 
7839 1 218.989 35.9899 -8.56492 0.00245335 1 
7840 1 216.741 35.2994 -6.92005 0.00543574 1 
7841 1 217.234 38.0419 -7.61768 0.00519877 1 
7842 1 215.003 37.3639 -5.94198 0.0129566 1 
7843 1 217.643 37.0928 -4.94059 0.0258119 1 
7844 1 215.436 36.462 -3.20546 0.179682 1 
7845 1 215.91 39.1858 -3.99614 0.0552638 1 
7846 1 213.737 38.5515 -2.28138 6.43081 5 
7847 1 216.414 38.2595 -1.33482 6.90904 5 
7848 1 214.654 40.0237 -0.109126 7.00531 5 
7932 1 222.576 35.5858 -13.8224 0.000146563 1 
7933 1 223.076 38.3299 -14.4898 9.94862e-05 1 
7934 1 220.829 37.6318 -12.8634 0.000210797 1 
7935 1 223.493 37.3978 -11.8104 0.000290181 1 
7936 1 221.244 36.6953 -10.1882 0.000650486 1 
7937 1 221.745 39.4462 -10.8607 0.000570788 1 
7938 1 219.489 38.7421 -9.24956 0.00249463 1 
7939 1 222.159 38.5062 -8.19147 0.00320577 1 
7940 1 219.895 37.7889 -6.59382 0.0146452 1 
7941 1 220.399 40.5589 -7.27865 0.0123829 1 
7942 1 218.133 39.8504 -5.66368 0.0204614 1 
7943 1 220.795 39.6083 -4.68206 0.109145 1 
7944 1 218.539 38.8939 -3.04044 0.212551 1 
7945 1 219.028 41.6188 -3.68683 0.0671149 1 
7946 1 216.811 40.9554 -1.97053 5.70569 5 
7947 1 219.321 40.5784 -0.995958 7.59879 5 
8032 1 225.737 38.0965 -13.4383 0.000147341 1 
8033 1 226.235 40.842 -14.106 9.0843e-05 1 
8034 1 223.992 40.1453 -12.4795 0.000205427 1 
8035 1 226.652 39.9103 -11.4252 0.000349179 1 
8036 1 224.409 39.2117 -9.80193 0.000948432 1 
8037 1 224.907 41.9646 -10.4723 0.000686105 1 
8038 1 222.661 41.268 -8.86368 0.00314815 1 
8039 1 225.327 41.0357 -7.80455 0.00467526 1 
8040 1 223.081 40.3387 -6.22024 0.0278408 1 
8041 1 223.576 43.0906 -6.84371 0.00637867 1 
8042 1 221.311 42.354 -5.2804 0.0229852 1 
8043 1 223.994 42.1766 -4.16688 0.124264 1 
8044 1 221.682 41.3447 -2.64266 4.36575 5 
8045 1 222.187 44.1505 -3.32232 0.469475 1 
8046 1 219.884 43.2783 -1.66708 6.07635 5 
8047 1 222.764 43.0604 -0.896516 10.8581 5 
8131 1 231.136 41.3059 -14.6905 6.60477e-05 1 
8132 1 228.894 40.6083 -13.0562 0.000161786 1 
8133 1 229.391 43.3563 -13.7235 9.04354e-05 1 
8134 1 227.149 42.6599 -12.0947 0.000195037 1 
8135 1 229.807 42.426 -11.0473 0.000312159 1 
8136 1 227.566 41.7284 -9.41995 0.000856043 1 
8137 1 228.06 44.4794 -10.0821 0.000232291 1 
8138 1 225.819 43.784 -8.45639 0.000529563 1 
8139 1 228.477 43.5458 -7.41037 0.00107373 1 
8140 1 226.241 42.8531 -5.77979 0.0062145 1 
8141 1 225.031 43.9691 -2.10604 6.72292 5 
8225 1 234.29 43.8212 -14.3122 8.45062e-05 1 
8226 1 232.049 43.1251 -12.6781 0.000141277 1 
8227 1 230.719 44.2476 -9.04124 0.000644939 1 
8733 1 99.0062 14.6132 -14.1377 0.000115637 1 
8734 1 101.665 14.3812 -13.1098 0.000127728 1 
8735 1 99.4216 13.6906 -11.4535 0.000351515 1 
8736 1 99.917 16.4259 -12.1244 0.000347275 1 
8737 1 100.331 15.5003 -9.44188 0.00153817 1 
8738 1 98.9958 16.6147 -5.73477 0.0194726 1 
8797 1 103.91 15.0735 -14.7578 2.84396e-05 1 
8799 1 102.162 17.1202 -13.776 8.12466e-05 1 
8800 1 104.824 16.8896 -12.7451 6.34031e-05 1 
8801 1 102.578 16.1949 -11.1001 0.000350202 1 
8802 1 103.075 18.9364 -11.7667 0.000160253 1 
8803 1 100.827 18.2382 -10.1187 0.000866726 1 
8804 1 103.49 18.0111 -9.09771 0.00111434 1 
8805 1 101.236 17.308 -7.44429 0.00499648 1 
8806 1 101.737 20.0512 -8.12073 0.00149688 1 
8807 1 99.4857 19.3434 -6.45597 0.0062503 1 
8808 1 102.139 19.1126 -5.45808 0.012932 1 
8809 1 99.8896 18.4229 -3.75211 0.133842 1 
8810 1 100.378 21.1342 -4.4807 0.0605161 1 
8811 1 100.7 20.1591 -1.7268 3.59284 5 
8812 1 197.839 22.4668 -0.854704 8.64473 5 
8880 1 107.068 17.5817 -14.3876 2.00002e-05 1 
8882 1 105.322 19.6304 -13.4079 3.88383e-05 1 
8883 1 107.982 19.3991 -12.3721 0.000122466 1 
8884 1 105.739 18.7078 -10.734 0.000272002 1 
8885 1 106.236 21.4483 -11.393 0.000131785 1 
8886 1 103.99 20.7545 -9.75837 0.000325236 1 
8887 1 106.653 20.5262 -8.71672 0.000863623 1 
8888 1 104.403 19.8296 -7.0926 0.00225258 1 
8889 1 104.902 22.5734 -7.74585 0.00136929 1 
8890 1 102.645 21.8585 -6.12288 0.00749415 1 
8891 1 105.305 21.6415 -5.07729 0.018408 1 
8892 1 103.009 20.8994 -3.46273 1.69122 5 
8893 1 202.254 23.685 -4.16139 0.0771924 1 
8894 1 199.997 22.9056 -2.56877 0.272287 1 
8895 1 103.945 22.6576 -1.57483 5.74015 5 
8896 1 200.752 24.6393 -0.641557 6.77443 5 
8972 1 110.225 20.0883 -14.0141 4.70403e-05 1 
8973 1 110.724 22.8277 -14.6738 3.05631e-05 1 
8974 1 108.48 22.1381 -13.0317 7.47644e-05 1 
8975 1 111.135 21.9031 -11.995 0.00017214 1 
8976 1 108.894 21.215 -10.3503 0.000574159 1 
8977 1 109.391 23.9526 -11.0107 0.000260581 1 
8978 1 107.149 23.265 -9.37364 0.000407037 1 
8979 1 109.801 23.0252 -8.32131 0.00212492 1 
8980 1 107.559 22.3391 -6.69194 0.00293453 1 
8981 1 206.765 25.0806 -7.35106 0.00191491 1 
8982 1 204.52 24.3966 -5.72872 0.0163313 1 
8983 1 108.451 24.1549 -4.67656 0.0192109 1 
8984 1 106.2 23.4673 -3.0805 0.228876 1 
8985 1 205.412 26.1917 -3.6314 0.105762 1 
8986 1 203.121 25.3907 -2.04785 6.37684 5 
8987 1 205.792 25.0946 -0.858348 9.75585 5 
8988 1 204.17 27.1235 -0.206307 14.1231 5 
9072 1 113.38 22.5931 -13.6393 8.20655e-05 1 
9073 1 113.881 25.3325 -14.2975 4.7899e-05 1 
9074 1 111.635 24.6421 -12.6548 8.46869e-05 1 
9075 1 114.289 24.4065 -11.6209 0.000186465 1 
9076 1 112.041 23.7148 -9.97296 0.00049501 1 
9077 1 211.252 26.4554 -10.6342 0.000155515 1 
9078 1 209.008 25.7654 -8.9889 0.000370707 1 
9079 1 211.654 25.5248 -7.95294 0.000665941 1 
9080 1 110.702 24.8345 -6.29978 0.00295671 1 
9081 1 209.915 27.5728 -6.96276 0.00166304 1 
9082 1 207.667 26.8883 -5.31658 0.00620414 1 
9083 1 210.315 26.6305 -4.26135 0.0189663 1 
9084 1 208.051 25.9536 -2.64772 0.121674 1 
9085 1 208.578 28.694 -3.30282 0.0667215 1 
9086 1 206.377 27.9549 -1.59357 5.70182 5 
9087 1 209.047 27.7151 -0.613288 7.34972 5 
9171 1 118.789 25.7897 -14.8972 4.6176e-05 1 
9172 1 116.539 25.0979 -13.2612 0.000104001 1 
9173 1 215.749 27.8362 -13.9192 6.79638e-05 1 
9174 1 213.5 27.1457 -12.2785 9.99426e-05 1 
9175 1 216.157 26.9103 -11.2428 0.000312619 1 
9176 1 213.904 26.2189 -9.60136 0.000466762 1 
9177 1 214.411 28.9573 -10.2567 0.000376403 1 
9178 1 212.163 28.2685 -8.61035 0.000625019 1 
9179 1 214.811 28.0312 -7.57536 0.0031571 1 
9180 1 212.562 27.3331 -5.93067 0.00223427 1 
9181 1 213.079 30.0847 -6.58091 0.00499773 1 
9182 1 210.821 29.3821 -4.96156 0.00796532 1 
9183 1 213.479 29.1387 -3.90305 0.0532741 1 
9184 1 211.234 28.4412 -2.29735 0.153978 1 
9185 1 211.719 31.2068 -2.99843 0.201894 1 
9186 1 209.391 30.461 -1.23391 4.96155 5 
9187 1 211.924 30.3144 -0.372423 6.254 5 
9271 1 220.658 28.2951 -14.5123 4.43401e-05 1 
9272 1 218.409 27.602 -12.878 8.70273e-05 1 
9273 1 218.911 30.3394 -13.539 7.10954e-05 1 
9274 1 216.661 29.6471 -11.901 0.000207056 1 
9275 1 219.321 29.4129 -10.8599 0.000346749 1 
9276 1 217.066 28.7227 -9.22437 0.00211676 1 
9277 1 217.574 31.4532 -9.88017 0.000856196 1 
9278 1 215.326 30.7647 -8.22732 0.00214478 1 
9279 1 217.98 30.529 -7.18861 0.00493301 1 
9280 1 215.727 29.8381 -5.5262 0.0175063 1 
9281 1 216.242 32.5572 -6.18754 0.0294935 1 
9282 1 214.003 31.9044 -4.53826 0.0768042 1 
9283 1 216.623 31.6308 -3.42673 0.590463 5 
9284 1 214.297 30.9313 -1.83662 1.68132 5 
9285 1 214.958 33.7919 -2.57755 0.454664 1 
9286 1 212.681 33.1811 -1.11646 6.09271 5 
9287 1 215.414 32.7719 -0.0944047 9.03947 5 
9372 1 223.82 30.8026 -14.1265 4.91316e-05 1 
9373 1 221.572 30.1069 -12.493 6.55724e-05 1 
9374 1 222.075 32.845 -13.1559 0.000114732 1 
9375 1 219.825 32.1475 -11.5216 0.000302654 1 
9376 1 222.487 31.9165 -10.4716 0.000290648 1 
9377 1 220.234 31.2189 -8.83571 0.00126936 1 
9378 1 220.74 33.9508 -9.50797 0.00149909 1 
9379 1 218.486 33.2486 -7.86154 0.00662722 1 
9380 1 221.146 33.0142 -6.81436 0.00714528 1 
9381 1 218.889 32.311 -5.14309 0.0498492 1 
9382 1 219.397 35.0472 -5.88647 0.00659586 1 
9383 1 217.155 34.3758 -4.23211 0.0526763 1 
9384 1 219.813 34.1102 -3.2065 0.111376 1 
9385 1 217.609 33.5273 -1.49748 1.96745 5 
9386 1 218.047 36.1302 -2.22899 0.496499 1 
9387 1 215.903 35.6308 -0.208127 6.38743 5 
9471 1 224.321 33.542 -14.7893 6.50942e-05 1 
9472 1 226.98 33.3118 -13.7396 7.33589e-05 1 
9473 1 224.735 32.615 -12.1046 0.00015276 1 
9474 1 225.237 35.3539 -12.7696 0.00023175 1 
9475 1 222.991 34.6542 -11.1389 0.000466473 1 
9476 1 225.651 34.425 -10.079 0.000886414 1 
9477 1 223.403 33.7229 -8.44898 0.00171735 1 
9478 1 223.908 36.4642 -9.12638 0.000835517 1 
9479 1 221.657 35.755 -7.50959 0.0021386 1 
9480 1 224.32 35.5336 -6.43287 0.00217201 1 
9481 1 222.061 34.8135 -4.82557 0.00978924 1 
9482 1 222.563 37.5598 -5.51227 0.0279543 1 
9483 1 220.29 36.8259 -3.91662 0.0818997 1 
9484 1 222.95 36.5938 -2.82081 0.553687 1 
9485 1 220.624 35.8409 -1.17567 4.14849 5 
9486 1 221.228 38.6661 -2.14021 5.60746 5 
9487 1 219.188 37.9207 -0.446884 8.07311 5 
9571 1 227.481 36.0514 -14.4041 9.08047e-05 1 
9572 1 230.139 35.821 -13.3545 6.62375e-05 1 
9573 1 227.896 35.1239 -11.7157 0.000275368 1 
9574 1 228.396 37.8636 -12.3849 0.000286617 1 
9575 1 226.154 37.1652 -10.7521 0.000425747 1 
9576 1 228.811 36.9323 -9.69065 0.00131628 1 
9577 1 226.567 36.2353 -8.05708 0.00113853 1 
9578 1 227.069 38.9757 -8.73724 0.00202776 1 
9579 1 224.824 38.2766 -7.11551 0.00674481 1 
9580 1 227.48 38.0411 -6.03088 0.0162859 1 
9581 1 225.23 37.3487 -4.40934 0.0623899 1 
9582 1 225.747 40.1193 -5.1409 0.0358297 1 
9583 1 223.493 39.4264 -3.61937 0.204568 1 
9584 1 226.184 39.2111 -2.49875 0.385902 1 
9585 1 223.828 38.5524 -1.06729 7.85474 5 
9586 1 224.527 41.1792 -1.57599 8.89682 5 
9669 1 232.381 36.517 -14.9933 5.53717e-05 1 
9671 1 230.638 38.5616 -14.0221 8.84147e-05 1 
9672 1 233.296 38.3311 -12.9731 0.00013756 1 
9673 1 231.054 37.6324 -11.3339 0.000279815 1 
9674 1 231.552 40.3761 -12.0076 0.000248341 1 
9675 1 229.31 39.6749 -10.3708 0.000821434 1 
9676 1 231.968 39.4422 -9.3213 0.00142648 1 
9677 1 229.723 38.7358 -7.6743 0.00526352 1 
9678 1 230.223 41.4904 -8.37189 0.00141815 1 
9679 1 227.985 40.7964 -6.74429 0.00549186 1 
9680 1 230.637 40.5476 -5.69455 0.00991359 1 
9681 1 228.404 39.8704 -4.06929 0.0656504 1 
9682 1 228.908 42.6068 -4.72935 0.0122501 1 
9683 1 226.712 41.9268 -3.09232 0.172302 1 
9684 1 229.359 41.6502 -2.01431 0.564871 1 
9685 1 227.06 41.1963 -0.167869 7.8618 5 
9686 1 227.731 43.6923 -1.16163 10.4641 5 
9769 1 235.536 39.0273 -14.6138 9.57759e-05 1 
9771 1 233.794 41.0745 -13.6437 0.000136836 1 
9772 1 236.452 40.8433 -12.5965 0.000345578 1 
9773 1 234.212 40.145 -10.9576 0.000630571 1 
9774 1 234.708 42.8946 -11.6336 0.000274889 1 
9775 1 232.466 42.195 -10.0027 0.000462866 1 
9776 1 235.127 41.9651 -8.95704 0.001012 1 
9777 1 232.883 41.2602 -7.33294 0.00330021 1 
9778 1 233.379 44.0197 -8.00043 0.00184824 1 
9779 1 231.135 43.3075 -6.37859 0.00443088 1 
9780 1 233.796 43.0714 -5.33297 0.0266026 1 
9781 1 231.556 42.3456 -3.70781 0.0863142 1 
9782 1 229.845 44.4223 -2.77727 0.279873 1 
9783 1 232.574 44.1576 -1.88239 2.9856 5 
9784 1 230.644 43.3909 -0.227313 9.34939 5 
9868 1 238.689 41.5379 -14.2399 0.00018493 1 
9869 1 239.186 44.2829 -14.9106 8.12359e-05 1 
9870 1 236.947 43.5899 -13.2697 0.000145007 1 
9871 1 239.603 43.3571 -12.2291 0.000261475 1 
9872 1 237.366 42.6637 -10.5889 0.000467237 1 
9873 1 238.28 44.4908 -8.58692 0.00125722 1 
9874 1 236.038 43.7954 -6.96432 0.0047899 1 
9955 1 241.842 44.0497 -13.8734 0.000146693 1 
10347 1 99.7574 7.09536 -13.8076 0.000118171 1 
10348 1 100.255 9.83117 -14.4637 7.87542e-05 1 
10349 1 100.673 8.91253 -11.7848 0.000229212 1 
10350 1 98.9272 10.9595 -10.786 0.000448622 1 
10351 1 99.3492 10.0449 -8.09659 0.00224673 1 
10391 1 102.916 9.59886 -13.4343 7.8036e-05 1 
10392 1 103.413 12.3351 -14.0946 5.75545e-05 1 
10393 1 101.169 11.6452 -12.4442 0.000202105 1 
10394 1 103.83 11.412 -11.4161 0.000243193 1 
10395 1 101.588 10.7235 -9.76137 0.000887526 1 
10396 1 102.082 13.4572 -10.4313 0.000454894 1 
10397 1 99.8399 12.771 -8.767 0.00124214 1 
10398 1 102.502 12.5322 -7.75462 0.00196471 1 
10399 1 100.269 11.8548 -6.08072 0.013646 1 
10400 1 100.749 14.577 -6.75768 0.00719825 1 
10401 1 101.174 13.6358 -4.07925 0.111272 1 
10402 1 99.0067 13.0566 -2.25255 0.301456 1 
10403 1 99.4477 15.7053 -3.01494 0.137048 1 
10404 1 100.005 14.8399 -0.165167 7.29669 5 
10451 1 108.318 12.7932 -14.7076 1.79905e-05 1 
10452 1 106.074 12.1032 -13.0637 5.1939e-05 1 
10453 1 106.571 14.8422 -13.7259 2.69787e-05 1 
10454 1 104.327 14.15 -12.0813 8.63276e-05 1 
10455 1 106.99 13.921 -11.051 0.000222369 1 
10456 1 104.746 13.227 -9.40729 0.000483829 1 
10457 1 105.244 15.9665 -10.0704 0.000395663 1 
10458 1 102.996 15.2688 -8.42759 0.00203542 1 
10459 1 105.672 15.0455 -7.39659 0.00436241 1 
10460 1 103.419 14.3398 -5.75952 0.0186524 1 
10461 1 103.91 17.0906 -6.4461 0.0121888 1 
10462 1 101.653 16.3894 -4.77964 0.037278 1 
10463 1 104.342 16.1972 -3.84483 0.239877 1 
10464 1 102.121 15.4005 -2.2146 5.48909 5 
10465 1 102.577 18.2014 -2.80487 3.06605 5 
10466 1 100.563 17.4541 -1.06093 5.59548 5 
10467 1 103.128 16.3423 0.0839701 8.18741 5 
10523 1 111.475 15.2982 -14.3353 4.4968e-05 1 
10524 1 109.232 14.6104 -12.6933 8.29577e-05 1 
10525 1 109.728 17.349 -13.3535 5.50636e-05 1 
10526 1 107.486 16.6598 -11.7111 0.000150096 1 
10527 1 110.147 16.4282 -10.6748 0.000423657 1 
10528 1 107.912 15.7424 -9.03335 0.00123941 1 
10529 1 108.402 18.4795 -9.69408 0.001059 1 
10530 1 106.162 17.7893 -8.06523 0.00267605 1 
10531 1 108.835 17.5702 -7.01271 0.00931166 1 
10532 1 106.604 16.8875 -5.41109 0.0322249 1 
10533 1 107.074 19.6091 -6.03634 0.00716229 1 
10534 1 104.816 18.911 -4.43887 0.0370762 1 
10535 1 107.493 18.7046 -3.33933 0.0677881 1 
10536 1 105.138 17.9823 -1.75683 6.70092 5 
10537 1 105.648 20.6361 -2.40124 8.51824 5 
10538 1 102.711 19.0492 -0.179035 5.79315 5 
10602 1 111.971 18.038 -14.996 4.05634e-05 1 
10603 1 114.63 17.8022 -13.9627 0.000110063 1 
10604 1 112.386 17.1137 -12.3209 0.000173905 1 
10605 1 112.881 19.8532 -12.9811 0.000138195 1 
10606 1 110.639 19.1653 -11.3358 0.000308118 1 
10607 1 113.291 18.9274 -10.3052 0.000693502 1 
10608 1 111.057 18.245 -8.65177 0.00205304 1 
10609 1 111.544 20.9775 -9.31083 0.00105234 1 
10610 1 109.311 20.2936 -7.65871 0.00460251 1 
10611 1 111.951 20.0511 -6.61109 0.00626958 1 
10612 1 109.735 19.3879 -4.93663 0.0342686 1 
10613 1 110.204 22.0929 -5.60992 0.0206485 1 