ITEM: TIMESTEP
0
ITEM: NUMBER OF ATOMS
9240
ITEM: BOX BOUNDS xy xz yz pp pp ss
0.0000000000000000e+00 4.1470259729099996e+02 2.8346759814799998e+02
0.0000000000000000e+00 3.9499440501999999e+01 0.0000000000000000e+00
-1.4068162428283193e+02 1.5549069191830466e+02 0.0000000000000000e+00
ITEM: ATOMS id type x y z c_csym c_cna 
1 1 393.39 37.8154 -8.22535 0.00286964 1 
2 1 392.552 39.2776 -5.91575 0.0249259 1 
3 1 261.749 34.6269 -2.84384 0.763987 1 
4 1 392.774 36.8687 -4.43435 0.306274 1 
5 1 391.884 38.2277 -2.28681 7.43082 5 
6 1 261.98 32.2584 -1.54375 10.9785 5 
7 1 260.583 35.6887 -0.525108 8.55854 5 
24 1 392.385 38.7628 -14.4705 6.21184e-05 1 
25 1 262.077 23.9329 -13.5813 3.5181e-05 1 
27 1 261.08 27.7833 -12.8432 0.000144699 1 
28 1 260.896 30.1689 -14.4201 7.27699e-05 1 
29 1 260.083 31.6358 -12.1096 0.000236314 1 
30 1 259.898 34.0237 -13.683 9.74519e-05 1 
31 1 261.527 33.9895 -11.3257 0.00027707 1 
32 1 261.338 36.3767 -12.8976 0.000124411 1 
33 1 259.084 35.4927 -11.3747 0.00040176 1 
34 1 390.133 37.8822 -12.9432 0.000117371 1 
35 1 391.761 37.8475 -10.5872 0.000476088 1 
36 1 389.319 39.3563 -10.6337 0.000306696 1 
37 1 262.262 21.5497 -12.0045 6.42361e-05 1 
38 1 261.444 23.018 -9.68446 0.00038256 1 
39 1 261.262 25.3994 -11.2644 0.000206057 1 
40 1 260.443 26.8639 -8.9535 0.00150667 1 
41 1 260.265 29.2483 -10.5349 0.000775287 1 
42 1 261.893 29.2148 -8.18776 0.00374439 1 
43 1 261.714 31.6028 -9.75296 0.000774404 1 
44 1 259.445 30.7114 -8.23831 0.00440716 1 
45 1 259.27 33.1011 -9.80778 0.00165602 1 
46 1 260.909 33.0686 -7.45195 0.0138904 1 
47 1 260.718 35.4576 -9.02086 0.00278923 1 
48 1 258.445 34.5643 -7.53044 0.00789838 1 
49 1 389.499 36.9641 -9.0757 0.0011946 1 
50 1 391.12 36.9304 -6.73674 0.0119875 1 
51 1 390.944 39.3199 -8.2835 0.00176882 1 
52 1 388.671 38.4378 -6.7752 0.0064015 1 
53 1 261.829 18.2443 -6.54515 0.0051717 1 
54 1 261.632 20.6325 -8.11272 0.00103815 1 
55 1 260.803 22.1016 -5.8002 0.0130216 1 
56 1 260.618 24.4899 -7.36149 0.00439978 1 
57 1 262.226 24.4517 -5.02164 0.0275288 1 
58 1 262.056 26.8302 -6.60594 0.0130815 1 
59 1 259.786 25.9745 -5.00974 0.0508394 1 
60 1 259.627 28.324 -6.6511 0.0112361 1 
61 1 261.264 28.308 -4.29617 0.0881528 1 
62 1 261.08 30.6847 -5.91103 0.034901 1 
63 1 258.797 29.7822 -4.39836 0.120191 1 
64 1 258.609 32.1762 -5.96039 0.0239709 1 
65 1 260.255 32.1898 -3.7033 0.193051 1 
66 1 260.076 34.53 -5.2102 0.0629203 1 
67 1 257.773 33.6405 -3.65526 0.222067 1 
68 1 388.848 36.0211 -5.26491 0.0517861 1 
69 1 259.195 35.8967 -2.96767 0.68152 1 
70 1 390.24 38.3928 -4.41955 0.201582 1 
71 1 387.993 37.505 -3.01153 0.472727 1 
72 1 130.953 13.4688 -3.35287 0.798805 1 
73 1 130.773 15.8625 -4.97925 0.0390795 1 
74 1 129.977 17.4509 -2.68661 6.66439 5 
75 1 261.039 19.7205 -4.25849 0.135865 1 
76 1 260.316 21.1391 -1.98944 5.68271 5 
77 1 259.971 23.593 -3.49883 0.121206 1 
78 1 261.461 23.5294 -1.23928 6.23426 5 
79 1 261.436 25.9913 -2.66196 0.1895 1 
80 1 259.189 25.1113 -1.09793 6.41168 5 
81 1 258.985 27.4726 -2.66021 0.707456 5 
82 1 260.752 27.6404 -0.463118 6.55112 5 
83 1 260.454 29.8739 -2.17709 6.27996 5 
84 1 258.543 29.489 -0.181631 12.1997 5 
85 1 257.993 31.2815 -2.16002 5.45914 5 
86 1 259.514 33.4572 -1.37402 9.24105 5 
87 1 257.076 35.147 -1.11635 6.95572 5 
88 1 389.638 37.6286 -0.939812 10.849 5 
89 1 387.172 38.8602 -0.619118 7.08479 5 
90 1 130.308 15.2689 -1.19416 12.7378 5 
91 1 260.441 18.6825 -0.126813 9.88455 5 
210 1 260.639 21.5841 -14.3638 1.61765e-05 1 
212 1 258.202 23.0869 -14.4029 2.26987e-05 1 
214 1 259.639 25.4348 -13.6229 5.69817e-05 1 
216 1 257.201 26.937 -13.6641 8.88922e-05 1 
218 1 258.64 29.2849 -12.8882 0.000204358 1 
219 1 258.456 31.6719 -14.4647 7.80562e-05 1 
220 1 256.201 30.7884 -12.9303 0.000234292 1 
221 1 256.017 33.1769 -14.5067 9.32726e-05 1 
222 1 257.641 33.1391 -12.1557 0.000329939 1 
223 1 257.457 35.5289 -13.727 9.79515e-05 1 
224 1 255.201 34.6461 -12.1961 0.000357873 1 
225 1 386.254 37.0364 -13.7673 0.000107862 1 
226 1 387.876 37.0006 -11.419 0.000322195 1 
227 1 387.694 39.3903 -12.9851 0.000100588 1 
228 1 385.439 38.5107 -11.4549 0.00028435 1 
229 1 130.338 6.75663 -13.4782 3.39073e-05 1 
231 1 129.342 10.6077 -12.7338 2.90489e-05 1 
232 1 129.154 12.9937 -14.3136 1.85073e-05 1 
233 1 130.778 12.9575 -11.9549 5.23942e-05 1 
234 1 130.59 15.3448 -13.5329 2.15381e-05 1 
235 1 128.344 14.4616 -11.9924 5.82168e-05 1 
236 1 128.155 16.8491 -13.5696 2.9719e-05 1 
237 1 129.778 16.8132 -11.2117 8.31719e-05 1 
238 1 260.825 19.1999 -12.7876 4.27448e-05 1 
239 1 258.577 18.3204 -11.2477 0.000221183 1 
240 1 258.388 20.7041 -12.8248 4.47915e-05 1 
241 1 260.009 20.6698 -10.4661 0.000230293 1 
242 1 259.824 23.0524 -12.0433 7.62113e-05 1 
243 1 257.572 22.1744 -10.5006 0.000243239 1 
244 1 257.386 24.5545 -12.082 0.000119255 1 
245 1 259.005 24.5195 -9.72169 0.000465171 1 
246 1 258.823 26.9001 -11.307 0.000311684 1 
247 1 256.568 26.0192 -9.75797 0.000462891 1 
248 1 256.384 28.4013 -11.3478 0.00037216 1 
249 1 258.002 28.3616 -8.9936 0.00139282 1 
250 1 257.823 30.7486 -10.5811 0.000991754 1 
251 1 255.564 29.8616 -9.03324 0.00164562 1 
252 1 255.382 32.2536 -10.6206 0.000851398 1 
253 1 256.998 32.2093 -8.28451 0.00438554 1 
254 1 256.82 34.6063 -9.85501 0.00162812 1 
255 1 254.558 33.7195 -8.31158 0.00277515 1 
256 1 385.617 36.1174 -9.88728 0.000964954 1 
257 1 387.227 36.0757 -7.55651 0.00648825 1 
258 1 387.059 38.4755 -9.11268 0.000858893 1 
259 1 384.801 37.592 -7.57734 0.00245733 1 
260 1 130.705 1.99386 -10.3214 0.000303434 1 
261 1 130.523 4.37401 -11.8992 8.99018e-05 1 
262 1 129.719 5.83784 -9.56982 0.00028068 1 
263 1 129.531 8.22232 -11.152 7.41913e-05 1 
264 1 130.966 10.5709 -10.3724 0.000109195 1 
265 1 128.726 9.6867 -8.82683 0.000857042 1 
266 1 128.534 12.0742 -10.4106 9.23556e-05 1 
267 1 130.161 12.0368 -8.04539 0.00128213 1 
268 1 129.969 14.4235 -9.63292 0.000396162 1 
269 1 127.725 13.5424 -8.091 0.000819244 1 
270 1 127.532 15.9311 -9.67407 0.000233083 1 
271 1 129.155 15.8906 -7.32276 0.00186281 1 
272 1 260.198 18.2847 -8.89179 0.000596909 1 
273 1 126.718 17.405 -7.35637 0.0017213 1 
274 1 257.76 19.7966 -8.91978 0.00251599 1 
275 1 259.376 19.7597 -6.565 0.00975493 1 
276 1 259.188 22.1401 -8.14233 0.00208372 1 
277 1 256.941 21.2817 -6.56797 0.0250604 1 
278 1 256.753 23.6427 -8.16807 0.00138551 1 
279 1 258.365 23.6084 -5.80847 0.0166173 1 
280 1 258.184 25.9821 -7.39444 0.00314574 1 
281 1 255.93 25.0953 -5.82148 0.0118888 1 
282 1 255.748 27.4773 -7.42865 0.00269123 1 
283 1 257.367 27.4393 -5.07546 0.0248437 1 
284 1 257.172 29.8221 -6.68646 0.0117959 1 
285 1 254.943 28.9236 -5.07586 0.03287 1 
286 1 254.745 31.3157 -6.71724 0.00734525 1 
287 1 256.341 31.2991 -4.36479 0.0737179 1 
288 1 256.173 33.6657 -5.99939 0.0244932 1 
289 1 253.943 32.7675 -4.40645 0.0972552 1 
290 1 253.735 35.1898 -5.98863 0.0225842 1 
291 1 255.41 35.0937 -3.71348 0.39711 1 
292 1 386.392 37.5474 -5.25053 0.0395595 1 
293 1 384.127 36.7042 -3.68677 0.624317 1 
294 1 383.992 39.0807 -5.27377 0.0198006 1 
295 1 385.596 39.0693 -2.9472 0.635528 1 
296 1 130.076 1.08318 -6.39392 0.00575829 1 
297 1 129.901 3.45563 -7.9825 0.000965527 1 
298 1 129.106 4.90856 -5.63915 0.00576851 1 
299 1 128.92 7.29988 -7.24505 0.00227907 1 
300 1 130.543 7.25154 -4.87935 0.0281596 1 
301 1 130.351 9.65752 -6.44664 0.0115439 1 
302 1 128.111 8.76787 -4.93818 0.0771856 1 
303 1 127.914 11.1533 -6.51735 0.0141454 1 
304 1 129.512 11.1536 -4.14293 0.432652 1 
305 1 129.353 13.5034 -5.73082 0.00988234 1 
306 1 127.138 12.6132 -4.15798 0.435866 1 
307 1 126.906 15.0117 -5.77633 0.00818766 1 
308 1 128.546 14.9514 -3.45101 0.658029 1 
309 1 128.342 17.3524 -5.0212 0.0359493 1 
310 1 126.077 16.499 -3.45347 0.111651 1 
311 1 257.127 18.887 -5.03198 0.0247243 1 
312 1 258.786 18.7915 -2.77233 0.391593 1 
313 1 258.553 21.2341 -4.20196 0.126523 1 
314 1 256.315 20.3892 -2.70063 1.332 5 
315 1 256.113 22.7653 -4.16808 0.280501 1 
316 1 257.79 22.7904 -1.84792 6.99014 5 
317 1 257.527 25.0621 -3.46158 0.301616 1 
318 1 255.21 24.1053 -1.45009 6.99746 5 
319 1 255.127 26.518 -3.48501 0.288085 1 
320 1 256.764 26.5259 -1.22882 7.42383 5 
321 1 256.6 28.9111 -2.7363 0.586747 5 
322 1 254.319 28.0117 -1.20822 7.72104 5 
323 1 254.14 30.4031 -2.75865 0.0914675 1 
324 1 255.855 30.401 -0.506405 3.5357 5 
325 1 255.549 32.8455 -1.92025 1.68363 5 
326 1 253.284 31.8355 -0.530765 10.0109 5 
327 1 253.049 34.2318 -2.25492 6.51125 5 
328 1 385.823 36.5449 -1.60368 11.5148 5 
329 1 383.674 38.3922 -0.975467 10.0949 5 
330 1 129.425 0.164624 -2.40957 5.15026 5 
331 1 129.269 2.53359 -4.00836 0.0622804 1 
332 1 130.924 2.5227 -1.67797 5.1919 5 
333 1 130.711 4.86359 -3.26012 0.0630473 1 
334 1 128.527 3.95641 -1.5417 6.81123 5 
335 1 128.309 6.34966 -3.29563 0.131384 1 
336 1 129.844 6.35611 -0.984578 7.16237 5 
337 1 129.645 8.72133 -2.63001 0.758775 1 
338 1 127.518 7.91846 -0.819241 6.86222 5 
339 1 127.404 10.3406 -2.48943 0.716047 1 
340 1 129.047 10.3422 -0.057115 8.90859 5 
341 1 128.79 12.9178 -1.33709 7.98675 5 
342 1 126.452 11.7128 -0.231088 7.60189 5 
343 1 126.232 14.0392 -1.9965 6.18433 5 
344 1 127.757 16.3657 -1.21439 8.1751 5 
345 1 256.522 18.03 -1.11384 6.3748 5 
346 1 258.169 20.3166 -0.666862 12.1501 5 
347 1 256.29 21.9546 0.316375 11.4717 5 
348 1 129.247 2.34248 0.722395 9.72505 5 
646 1 255.765 24.59 -14.4422 3.45984e-05 1 
648 1 253.328 26.0943 -14.481 4.30971e-05 1 
650 1 254.764 28.4408 -13.704 0.000104837 1 
652 1 252.328 29.9471 -13.742 9.81002e-05 1 
654 1 253.763 32.2951 -12.9686 0.000214763 1 
655 1 253.58 34.6838 -14.5454 9.95778e-05 1 
656 1 251.328 33.8042 -13.0042 0.000156174 1 
657 1 382.379 36.1915 -14.5821 7.84382e-05 1 
658 1 384 36.1559 -12.2308 0.000265757 1 
659 1 383.818 38.5446 -13.804 9.55582e-05 1 
660 1 381.568 37.6656 -12.2645 0.000187633 1 
666 1 128.9 4.40826 -14.2596 3.04398e-05 1 
668 1 126.467 5.91001 -14.2955 2.35685e-05 1 
670 1 127.905 8.25867 -13.5142 2.50892e-05 1 
672 1 125.472 9.76158 -13.5532 2.41272e-05 1 
674 1 126.909 12.1111 -12.7725 3.03897e-05 1 
675 1 126.72 14.4977 -14.3518 2.00547e-05 1 
676 1 124.474 13.6156 -12.8139 4.68101e-05 1 
677 1 124.284 16.0024 -14.3913 1.95841e-05 1 
678 1 125.909 15.9674 -12.0322 6.24946e-05 1 
679 1 256.954 18.3539 -13.6079 3.39208e-05 1 
680 1 254.707 17.4732 -12.0725 7.10068e-05 1 
681 1 254.517 19.8585 -13.6466 5.0847e-05 1 
682 1 256.141 19.8256 -11.2852 0.000231692 1 
683 1 255.952 22.2078 -12.8625 6.86122e-05 1 
684 1 253.704 21.3298 -11.3234 0.000277889 1 
685 1 253.515 23.7116 -12.9009 8.90228e-05 1 
686 1 255.137 23.6767 -10.5362 0.000313737 1 
687 1 254.95 26.0571 -12.1206 0.00014811 1 
688 1 252.703 25.18 -10.5748 0.000330142 1 
689 1 252.514 27.5624 -12.1589 0.000152868 1 
690 1 254.134 27.5212 -9.79605 0.000562908 1 
691 1 253.948 29.9064 -11.3864 0.000364385 1 
692 1 251.702 29.0296 -9.83388 0.000455183 1 
693 1 251.513 31.4163 -11.4221 0.000264201 1 
694 1 253.131 31.3706 -9.06832 0.000957206 1 
695 1 252.946 33.7642 -10.6539 0.000518858 1 
696 1 250.7 32.8877 -9.10035 0.000648113 1 
697 1 381.751 35.2776 -10.685 0.000321119 1 
698 1 383.367 35.236 -8.33703 0.000748591 1 
699 1 383.186 37.6312 -9.91549 0.000586568 1 
700 1 380.941 36.7566 -8.36397 0.00217683 1 
701 1 380.758 39.1429 -9.94561 0.000571397 1 
702 1 382.377 39.1136 -7.59945 0.00258036 1 
703 1 129.083 2.02639 -12.6823 8.12896e-05 1 
704 1 126.833 1.1458 -11.1372 0.000157803 1 
705 1 126.651 3.52728 -12.7158 4.99491e-05 1 
706 1 128.277 3.4921 -10.3533 0.000269151 1 
707 1 128.092 5.87478 -11.9337 4.97365e-05 1 
708 1 125.845 4.99332 -10.39 0.000141938 1 
709 1 125.659 7.37668 -11.9723 4.41196e-05 1 
710 1 127.287 7.33943 -9.60834 0.000100934 1 
711 1 127.098 9.72517 -11.1909 5.49837e-05 1 
712 1 124.854 8.84307 -9.65121 0.000287863 1 
713 1 124.664 11.2298 -11.2325 7.66881e-05 1 
714 1 126.29 11.1934 -8.87044 0.000858952 1 
715 1 126.1 13.5795 -10.4526 9.28815e-05 1 
716 1 123.861 12.6998 -8.9083 0.0018987 1 
717 1 123.666 15.0851 -10.4972 0.000374128 1 
718 1 125.29 15.0496 -8.13442 0.00139094 1 
719 1 256.333 17.4399 -9.71331 0.000357732 1 
720 1 122.858 16.5581 -8.18575 0.00246898 1 
721 1 253.895 18.9457 -9.75331 0.000358584 1 
722 1 255.523 18.9183 -7.39314 0.00323518 1 
723 1 255.327 21.2982 -8.95606 0.00192443 1 
724 1 253.076 20.4147 -7.43179 0.00301387 1 
725 1 252.892 22.7999 -8.99448 0.00151702 1 
726 1 254.512 22.7646 -6.61545 0.0124605 1 
727 1 254.321 25.1419 -8.20133 0.00124174 1 
728 1 252.09 24.2631 -6.64963 0.0124127 1 
729 1 251.891 26.6456 -8.24451 0.00119783 1 
730 1 253.502 26.6059 -5.85925 0.0065824 1 
731 1 253.322 28.9818 -7.4654 0.00241188 1 
732 1 251.081 28.1111 -5.91139 0.00516195 1 
733 1 250.89 30.4974 -7.50753 0.00116995 1 
734 1 252.514 30.4389 -5.14155 0.00794236 1 
735 1 252.316 32.8351 -6.7511 0.00361453 1 
736 1 250.073 31.9695 -5.18163 0.0251216 1 
737 1 249.885 34.3679 -6.77801 0.0139571 1 
738 1 251.478 34.3098 -4.46263 0.20606 1 
739 1 382.552 36.717 -6.02501 0.0210287 1 
740 1 380.36 35.8656 -4.38956 0.0921262 1 
741 1 380.153 38.237 -6.02743 0.0102962 1 
742 1 381.798 38.2066 -3.66577 0.316547 1 
743 1 128.457 1.11394 -8.77168 0.000919234 1 
744 1 126.204 0.235982 -7.22989 0.00166042 1 
745 1 126.03 2.61064 -8.8091 0.00106423 1 
746 1 127.658 2.57464 -6.42726 0.00635542 1 
747 1 127.479 4.95235 -8.02624 0.0020355 1 
748 1 125.237 4.06532 -6.49206 0.0144719 1 
749 1 125.042 6.45854 -8.06497 0.00272082 1 
750 1 126.694 6.41126 -5.71398 0.0288222 1 
751 1 126.478 8.80379 -7.28555 0.00499596 1 
752 1 124.248 7.9114 -5.71451 0.0986613 1 
753 1 124.061 10.3081 -7.32581 0.00912039 1 
754 1 125.7 10.2809 -4.93937 0.062531 1 
755 1 125.497 12.664 -6.53576 0.0111551 1 
756 1 123.261 11.8029 -5.03358 0.0507705 1 
757 1 123.05 14.1862 -6.58893 0.014117 1 
758 1 124.662 14.1586 -4.24119 0.116371 1 
759 1 124.48 16.5328 -5.81641 0.0104815 1 
760 1 122.275 15.698 -4.21125 0.205913 1 
761 1 253.288 18.0242 -5.8866 0.0386461 1 
762 1 254.889 18.0107 -3.48496 0.152428 1 
763 1 254.708 20.3953 -5.06959 0.0207681 1 
764 1 252.495 19.4613 -3.6181 0.479096 1 
765 1 252.266 21.8664 -5.09722 0.0311879 1 
766 1 253.866 21.9034 -2.70031 2.22152 5 
767 1 253.703 24.216 -4.24533 0.239244 1 
768 1 251.426 23.2563 -2.78335 0.765932 5 
769 1 251.256 25.7189 -4.32246 0.0359041 1 
770 1 252.915 25.6831 -2.02213 8.35646 5 
771 1 252.685 28.0816 -3.50941 0.0812389 1 
772 1 250.432 27.2649 -2.01952 7.06333 5 
773 1 250.279 29.5936 -3.58413 0.0751718 1 
774 1 251.916 29.4747 -1.04057 6.84031 5 
775 1 251.696 31.8718 -2.8314 0.195167 1 
776 1 249.567 31.0959 -1.26946 6.2283 5 
777 1 249.349 33.4886 -2.81241 0.183183 1 
778 1 250.966 33.4143 -0.346255 8.70117 5 
779 1 382.091 35.8942 -1.94022 2.45114 5 
780 1 379.766 34.9 -0.613684 5.33215 5 
781 1 379.581 37.3477 -2.04617 0.474031 1 
782 1 381.397 37.4573 0.21192 7.83464 5 
783 1 378.94 39.1315 0.383183 9.3536 5 
784 1 127.826 0.200156 -4.86079 0.0224091 1 
785 1 125.39 1.70473 -4.89885 0.0180748 1 
786 1 127.005 1.69084 -2.53491 1.77959 5 
787 1 126.883 4.04323 -4.08208 0.0656628 1 
788 1 124.596 3.14823 -2.60807 0.293624 1 
789 1 124.476 5.48489 -4.22112 0.291918 1 
790 1 126.155 5.56271 -1.73981 7.55947 5 
791 1 125.983 7.89862 -3.39572 0.411796 1 
792 1 123.661 7.01681 -2.20519 8.19563 5 
793 1 123.423 9.44931 -3.47837 0.341646 1 
794 1 125.156 9.34542 -1.24732 6.13827 5 
795 1 124.847 11.7364 -2.62608 0.329233 1 
796 1 122.486 10.9217 -1.10943 4.48099 5 
797 1 122.561 13.3199 -2.64713 0.659146 1 
798 1 124.037 13.3252 -0.0823808 8.14159 5 
799 1 123.933 15.7154 -1.76917 3.02188 5 
800 1 121.76 14.9077 -0.419478 5.78669 5 
801 1 252.58 17.274 -1.80225 3.74876 5 
802 1 254.171 19.6744 -1.18192 9.77504 5 
803 1 251.55 20.6203 -1.35261 7.80309 5 
804 1 252.817 22.6098 -0.117386 10.4485 5 
805 1 250.67 24.9038 -0.696496 12.6954 5 
806 1 124.692 0.75395 -0.835975 7.15926 5 
807 1 126.182 3.14927 -0.23923 12.6344 5 
808 1 123.757 4.84485 -0.561678 10.8283 5 
1302 1 250.892 27.6003 -14.5191 4.30619e-05 1 
1304 1 248.457 29.1074 -14.5569 3.6284e-05 1 
1306 1 249.893 31.4552 -13.7789 7.368e-05 1 
1308 1 247.46 32.9627 -13.8163 5.18844e-05 1 
1310 1 380.131 35.3131 -13.0396 0.00010655 1 
1311 1 379.946 37.6981 -14.6192 5.26023e-05 1 
1312 1 377.699 36.8189 -13.0781 8.22737e-05 1 
1313 1 377.512 39.2026 -14.6584 3.98366e-05 1 
1314 1 379.137 39.1724 -12.3008 0.000140522 1 
1322 1 124.033 7.41235 -14.3343 2.37483e-05 1 
1324 1 121.598 8.91522 -14.3756 3.28133e-05 1 
1326 1 123.037 11.2651 -13.5949 3.73487e-05 1 
1328 1 120.6 12.7691 -13.6382 8.23371e-05 1 
1330 1 122.037 15.1207 -12.8565 7.76497e-05 1 
1331 1 253.082 17.5074 -14.4314 2.81817e-05 1 
1332 1 119.598 16.6265 -12.899 7.62059e-05 1 
1333 1 250.643 19.0132 -14.4711 3.49109e-05 1 
1334 1 252.269 18.9788 -12.1131 9.66147e-05 1 
1335 1 252.08 21.3636 -13.6855 6.80404e-05 1 
1336 1 249.83 20.4856 -12.1528 0.000118707 1 
1337 1 249.643 22.87 -13.7241 7.1885e-05 1 
1338 1 251.268 22.8349 -11.3625 0.000308662 1 
1339 1 251.08 25.2174 -12.9392 9.35169e-05 1 
1340 1 248.832 24.343 -11.4012 0.00025924 1 
1341 1 248.644 26.7252 -12.9772 8.51492e-05 1 
1342 1 250.269 26.6881 -10.6139 0.000303569 1 
1343 1 250.08 29.071 -12.1964 0.000128391 1 
1344 1 247.835 28.1997 -10.6524 0.000258977 1 
1345 1 247.647 30.5805 -12.2338 9.33422e-05 1 
1346 1 249.269 30.5437 -9.87149 0.00033985 1 
1347 1 249.082 32.928 -11.4571 0.000176453 1 
1348 1 246.839 32.0564 -9.90819 0.000305887 1 
1349 1 377.886 34.4369 -11.494 0.000174347 1 
1350 1 248.273 34.4047 -9.13253 0.00105075 1 
1351 1 379.322 36.7888 -10.7178 0.000381376 1 
1352 1 377.084 35.9128 -9.16795 0.00114849 1 
1353 1 376.894 38.2921 -10.7587 0.000405441 1 
1354 1 378.519 38.2672 -8.38916 0.0021004 1 
1355 1 125.211 1.17883 -13.4978 3.70917e-05 1 
1356 1 122.961 0.298758 -11.9532 5.8549e-05 1 
1357 1 122.778 2.68067 -13.5341 3.14062e-05 1 
1358 1 124.402 2.64658 -11.1724 0.000100435 1 
1359 1 124.219 5.02876 -12.7534 4.42479e-05 1 
1360 1 121.969 4.1483 -11.2114 0.000124778 1 
1361 1 121.785 6.53093 -12.7944 6.5405e-05 1 
1362 1 123.412 6.49495 -10.4318 0.000180418 1 
1363 1 123.226 8.87983 -12.0141 6.48257e-05 1 
1364 1 120.978 7.99762 -10.4778 0.000566188 1 
1365 1 120.79 10.3829 -12.0591 0.000181809 1 
1366 1 122.422 10.3485 -9.69551 0.00103162 1 
1367 1 122.23 12.7334 -11.2778 0.000336321 1 
1368 1 119.981 11.851 -9.74998 0.000537473 1 
1369 1 119.789 14.2382 -11.3264 0.000203499 1 
1370 1 121.424 14.2036 -8.96866 0.00158352 1 
1371 1 121.226 16.5917 -10.5425 0.000208313 1 
1372 1 118.978 15.7063 -9.01958 0.00234479 1 
1373 1 250.018 18.0974 -10.5861 0.000326968 1 
1374 1 251.644 18.0612 -8.23012 0.00254281 1 
1375 1 251.455 20.4501 -9.79472 0.000401564 1 
1376 1 249.199 19.5697 -8.27704 0.00140698 1 
1377 1 249.017 21.9591 -9.83332 0.000447649 1 
1378 1 250.645 21.9178 -7.47264 0.00255546 1 
1379 1 250.459 24.3046 -9.03454 0.00157392 1 
1380 1 248.204 23.4333 -7.51392 0.00155912 1 
1381 1 248.023 25.8178 -9.07823 0.000503272 1 
1382 1 249.65 25.7747 -6.71155 0.00298519 1 
1383 1 249.459 28.1618 -8.28529 0.00115959 1 
1384 1 247.219 27.2975 -6.75268 0.00121771 1 
1385 1 247.029 29.6785 -8.32339 0.00105992 1 
1386 1 248.652 29.6419 -5.94709 0.00736292 1 
1387 1 248.461 32.0209 -7.54285 0.00235969 1 
1388 1 246.233 31.1662 -5.98479 0.00761863 1 
1389 1 246.04 33.5361 -7.57698 0.0022269 1 
1390 1 247.678 33.5081 -5.19215 0.0234402 1 
1391 1 378.718 35.8848 -6.79231 0.00858807 1 
1392 1 376.467 35.0184 -5.26798 0.00740942 1 
1393 1 376.283 37.392 -6.84987 0.00251327 1 
1394 1 377.927 37.3723 -4.48475 0.0228837 1 
1395 1 375.486 38.8712 -4.53006 0.047944 1 
1396 1 124.582 0.266099 -9.59232 0.000215306 1 
1397 1 122.15 1.76774 -9.62767 0.000217136 1 
1398 1 123.773 1.73347 -7.26611 0.00159833 1 
1399 1 123.596 4.1119 -8.84998 0.000716107 1 
1400 1 121.338 3.23618 -7.30564 0.00131899 1 
1401 1 121.159 5.6153 -8.89374 0.000927271 1 
1402 1 122.788 5.57477 -6.5383 0.0164464 1 
1403 1 122.613 7.9596 -8.11344 0.00523812 1 
1404 1 120.343 7.08098 -6.58615 0.0161097 1 
1405 1 120.169 9.46432 -8.17683 0.00297121 1 
1406 1 121.806 9.43084 -5.83875 0.0285929 1 
1407 1 121.618 11.827 -7.38625 0.00718249 1 
1408 1 119.361 10.933 -5.89387 0.0345956 1 
1409 1 119.178 13.3156 -7.44584 0.013702 1 
1410 1 120.84 13.306 -5.03415 0.165742 1 
1411 1 120.626 15.6632 -6.66354 0.0385447 1 
1412 1 118.345 14.7778 -5.20161 0.0643146 1 
1413 1 249.381 17.1806 -6.729 0.0124998 1 
1414 1 251.039 17.1139 -4.43095 0.325466 1 
1415 1 250.809 19.5241 -5.91209 0.0292902 1 
1416 1 248.501 18.6454 -4.40365 0.21443 1 
1417 1 248.38 21.0357 -5.97525 0.0139591 1 
1418 1 249.971 20.9947 -3.60226 0.362954 1 
1419 1 249.839 23.3821 -5.16186 0.0178895 1 
1420 1 247.6 22.5092 -3.68749 0.255126 1 
1421 1 247.394 24.9132 -5.19086 0.0143162 1 
1422 1 249.001 24.8378 -2.85963 0.221456 1 
1423 1 248.839 27.247 -4.38724 0.011814 1 
1424 1 246.614 26.3897 -2.8173 0.164008 1 
1425 1 246.419 28.7837 -4.42497 0.0171092 1 
1426 1 248.039 28.6955 -2.08449 0.287298 1 
1427 1 247.86 31.1336 -3.57094 0.124598 1 
1428 1 245.582 30.2966 -2.13719 0.280821 1 
1429 1 245.426 32.6721 -3.67261 0.0276842 1 
1430 1 247.02 32.7122 -1.3084 7.26054 5 
1431 1 378.095 35.0288 -2.90838 0.0714068 1 
1432 1 375.864 34.1692 -1.31653 0.276171 1 
1433 1 375.657 36.493 -2.97753 0.128111 1 
1434 1 377.317 36.6259 -0.602053 2.60313 5 
1435 1 377.189 38.8803 -2.18574 0.33775 1 
1436 1 374.826 38.0786 -0.843959 6.1499 5 
1437 1 121.531 0.863536 -5.70728 0.0140923 1 
1438 1 123.127 0.830791 -3.29141 0.287191 1 
1439 1 122.958 3.19639 -4.94931 0.032821 1 
1440 1 120.748 2.29117 -3.37037 0.332815 1 
1441 1 120.516 4.7003 -4.98739 0.0570572 1 
1442 1 122.092 4.69991 -2.69578 0.872512 5 
1443 1 121.931 7.06552 -4.26223 0.35527 1 
1444 1 119.791 6.23449 -2.55284 0.570043 1 
1445 1 119.562 8.54981 -4.2619 0.13265 1 
1446 1 121.318 8.51106 -1.76109 4.90937 5 
1447 1 121.032 10.8743 -3.58127 0.456572 1 
1448 1 118.742 10.1084 -2.15703 6.31282 5 
1449 1 118.531 12.4392 -3.6862 0.208459 1 
1450 1 120.257 12.5054 -1.53509 11.0765 5 
1451 1 120.024 14.8802 -2.83171 0.794836 1 
1452 1 117.793 13.711 -1.35464 6.01206 5 
1453 1 117.472 16.15 -2.9629 0.695343 1 
1454 1 118.85 15.9548 -0.520692 8.54102 5 
1455 1 250.17 18.4971 -2.28666 7.58549 5 
1456 1 247.929 17.8849 -0.948787 10.967 5 
1457 1 247.71 20.3053 -2.01134 5.89673 5 
1458 1 249.255 22.4859 -1.04978 7.79548 5 
1459 1 246.81 23.8728 -1.44028 11.9703 5 
1460 1 248.232 26.2054 -0.399285 7.02891 5 
1461 1 245.812 27.9631 -0.510451 8.3713 5 
1462 1 247.289 30.3703 -0.0238943 10.6849 5 
1463 1 244.911 31.7835 0.479829 6.87791 5 
1464 1 122.386 2.46811 -1.03033 10.5304 5 
1465 1 119.916 3.76361 -1.04781 10.0537 5 
1466 1 121.279 6.02186 0.243113 9.69621 5 
1467 1 119.082 7.86889 -0.41459 7.38536 5 
2161 1 246.023 30.6137 -14.5952 2.84345e-05 1 
2163 1 243.588 32.1175 -14.6355 3.06437e-05 1 
2165 1 376.261 34.4675 -13.8563 4.97267e-05 1 
2167 1 373.826 35.9693 -13.8997 8.6386e-05 1 
2169 1 375.265 38.3213 -13.1209 0.000116365 1 
2181 1 119.161 10.4186 -14.4187 5.83461e-05 1 
2183 1 116.722 11.9233 -14.4616 6.14748e-05 1 
2185 1 118.16 14.2744 -13.6816 6.94938e-05 1 
2187 1 115.72 15.7815 -13.7222 7.56837e-05 1 
2189 1 248.392 18.1338 -12.9394 8.72534e-05 1 
2190 1 248.205 20.5201 -14.5097 3.88474e-05 1 
2191 1 245.952 19.6428 -12.9766 8.60392e-05 1 
2192 1 245.768 22.0277 -14.5468 3.85448e-05 1 
2193 1 247.392 21.9944 -12.1904 0.00010828 1 
2194 1 247.206 24.3775 -13.7617 5.98814e-05 1 
2195 1 244.955 23.5034 -12.2258 0.000101719 1 
2196 1 244.771 25.8846 -13.7988 4.58817e-05 1 
2197 1 246.396 25.8528 -11.4391 0.000135613 1 
2198 1 246.209 28.2332 -13.0149 7.25562e-05 1 
2199 1 243.961 27.3608 -11.4751 0.000102158 1 
2200 1 243.775 29.7386 -13.0536 5.6243e-05 1 
2201 1 245.401 29.7096 -10.6896 0.000237958 1 
2202 1 245.214 32.0873 -12.2727 8.14941e-05 1 
2203 1 242.968 31.2132 -10.7303 0.000203416 1 
2204 1 242.78 33.5892 -12.3158 0.000129422 1 
2205 1 244.409 33.562 -9.94929 0.000433245 1 
2206 1 375.455 35.9395 -11.5368 0.000267359 1 
2207 1 373.206 35.0594 -10.0007 0.000324923 1 
2208 1 373.017 37.4387 -11.5869 0.000277719 1 
2209 1 374.649 37.4104 -9.2233 0.000731815 1 
2210 1 372.208 38.9058 -9.28337 0.00120223 1 
2211 1 121.34 0.33188 -14.3146 2.46603e-05 1 
2212 1 118.907 1.83476 -14.3531 2.49697e-05 1 
2213 1 120.529 1.80152 -11.9896 6.62179e-05 1 
2214 1 120.345 4.18294 -13.5735 3.90659e-05 1 
2215 1 118.096 3.30439 -12.0297 7.31599e-05 1 
2216 1 117.91 5.68552 -13.6154 5.33083e-05 1 
2217 1 119.534 5.65066 -11.2539 0.000191536 1 
2218 1 119.349 8.03336 -12.8382 0.000126725 1 
2219 1 117.097 7.15232 -11.2977 0.000251334 1 
2220 1 116.91 9.53631 -12.8831 0.000174765 1 
2221 1 118.537 9.49916 -10.5277 0.00060561 1 
2222 1 118.35 11.8862 -12.1066 0.00017629 1 
2223 1 116.094 11.0017 -10.5746 0.000847741 1 
2224 1 115.907 13.3919 -12.1505 0.000271013 1 
2225 1 117.537 13.3523 -9.80222 0.00149334 1 
2226 1 117.345 15.7443 -11.3709 0.000326677 1 
2227 1 115.085 14.8612 -9.84693 0.00141718 1 
2228 1 246.136 17.2543 -11.4104 0.000250091 1 
2229 1 247.758 17.2167 -9.06712 0.00103536 1 
2230 1 247.575 19.6081 -10.6255 0.000250595 1 
2231 1 245.316 18.7295 -9.09877 0.000641259 1 
2232 1 245.137 21.1193 -10.6589 0.000238816 1 
2233 1 246.757 21.0852 -8.31072 0.00121453 1 
2234 1 246.58 23.4707 -9.8706 0.000275121 1 
2235 1 244.325 22.5995 -8.33798 0.000538956 1 
2236 1 244.145 24.9822 -9.90279 0.000250783 1 
2237 1 245.773 24.9508 -7.54916 0.00103796 1 
2238 1 245.589 27.3313 -9.11474 0.000260054 1 
2239 1 243.341 26.4652 -7.57548 0.000859714 1 
2240 1 243.154 28.8396 -9.14989 0.000246993 1 
2241 1 244.788 28.8144 -6.78917 0.000715701 1 
2242 1 244.598 31.19 -8.36041 0.00112833 1 
2243 1 242.35 30.3214 -6.82628 0.00119054 1 
2244 1 242.161 32.6876 -8.41017 0.000480776 1 
2245 1 243.79 32.6747 -6.03232 0.00516437 1 
2246 1 374.838 35.0367 -7.63357 0.000851533 1 
2247 1 372.587 34.1582 -6.09427 0.00506666 1 
2248 1 372.394 36.5258 -7.69476 0.00118383 1 
2249 1 374.024 36.5093 -5.32986 0.0087033 1 
2250 1 373.844 38.8764 -6.92132 0.00542098 1 
2251 1 371.569 37.984 -5.40191 0.00359562 1 
2252 1 118.281 0.925441 -10.4426 0.000137387 1 
2253 1 119.901 0.895004 -8.0748 0.000717414 1 
2254 1 119.716 3.27192 -9.66476 0.000284705 1 
2255 1 117.469 2.39972 -8.11261 0.000561096 1 
2256 1 117.284 4.77376 -9.70578 0.000386269 1 
2257 1 118.903 4.74624 -7.3373 0.00504162 1 
2258 1 118.722 7.11675 -8.93961 0.00147721 1 
2259 1 116.478 6.24032 -7.37545 0.00526699 1 
2260 1 116.283 8.61598 -8.98301 0.00126254 1 
2261 1 117.919 8.57609 -6.63127 0.0141267 1 
2262 1 117.721 10.9628 -8.22835 0.00402008 1 
2263 1 115.456 10.0825 -6.67903 0.00944805 1 
2264 1 115.271 12.4656 -8.27748 0.003715 1 
2265 1 116.886 12.4304 -5.95012 0.0227983 1 
2266 1 116.711 14.8175 -7.52176 0.00721197 1 
2267 1 114.444 13.9244 -5.99004 0.0252679 1 
2268 1 245.488 16.3319 -7.54358 0.00643137 1 
2269 1 247.113 16.2758 -5.25225 0.0500786 1 
2270 1 246.927 18.69 -6.76072 0.00606349 1 
2271 1 244.645 17.7994 -5.23008 0.0444826 1 
2272 1 244.498 20.207 -6.78456 0.00248162 1 
2273 1 246.113 20.1755 -4.44753 0.056219 1 
2274 1 245.945 22.5703 -5.98592 0.00934094 1 
2275 1 243.686 21.7066 -4.48474 0.0498186 1 
2276 1 243.523 24.0883 -6.01465 0.00636414 1 
2277 1 245.151 24.0832 -3.64425 0.194355 1 
2278 1 244.988 26.436 -5.22018 0.00944503 1 
2279 1 242.772 25.5876 -3.68642 0.112805 1 
2280 1 242.545 27.9534 -5.25015 0.00654071 1 
2281 1 244.217 27.8857 -2.90252 0.138954 1 
2282 1 243.986 30.2967 -4.46975 0.0139084 1 
2283 1 241.771 29.458 -2.92177 0.0385958 1 
2284 1 241.553 31.7992 -4.49434 0.0203107 1 
2285 1 243.235 31.8064 -2.12912 0.175818 1 
2286 1 374.204 34.1735 -3.68789 0.0703726 1 
2287 1 240.703 33.2447 -2.22892 0.180058 1 
2288 1 371.751 35.6217 -3.79446 0.0350995 1 
2289 1 373.316 35.6813 -1.32083 5.91255 5 
2290 1 373.181 37.9676 -3.05683 0.0884807 1 
2291 1 370.887 37.1145 -1.4868 1.14045 5 
2292 1 370.742 39.4507 -3.1182 0.0250298 1 
2293 1 372.32 39.3491 -0.760734 3.44058 5 
2294 1 119.086 2.37408 -5.74461 0.0115489 1 
2295 1 116.826 1.53051 -4.17074 0.106105 1 
2296 1 116.665 3.88053 -5.7757 0.00811874 1 
2297 1 118.32 3.87143 -3.40187 0.0648008 1 
2298 1 118.115 6.23053 -4.9671 0.0646294 1 
2299 1 115.848 5.35412 -3.47608 0.130172 1 
2300 1 115.668 7.70268 -5.0696 0.0279788 1 
2301 1 117.305 7.72148 -2.63465 0.687013 5 
2302 1 117.087 10.0387 -4.38622 0.117271 1 
2303 1 114.894 9.18657 -2.74831 0.506395 5 
2304 1 114.623 11.5673 -4.35328 0.0778959 1 
2305 1 116.282 11.5318 -2.14032 5.43819 5 
2306 1 116.048 13.8947 -3.64292 0.210486 1 
2307 1 113.816 13.1092 -1.9006 1.86929 5 
2308 1 113.675 15.3472 -3.70132 0.425711 1 
2309 1 115.353 15.409 -1.1149 6.9356 5 
2310 1 246.252 17.7615 -2.99654 0.491935 1 
2311 1 244.09 16.7947 -1.59077 11.2045 5 
2312 1 243.842 19.3099 -2.91041 0.376847 1 
2313 1 245.476 19.1026 -0.57779 6.9417 5 
2314 1 245.278 21.6398 -2.2122 5.99662 5 
2315 1 243.134 21.0749 -0.564615 11.4475 5 
2316 1 242.978 23.296 -2.10892 6.6758 5 
2317 1 244.467 25.5275 -1.08568 7.33212 5 
2318 1 242.322 24.5778 0.408923 9.44202 5 
2319 1 242.011 27.0492 -1.44131 5.24254 5 
2320 1 243.435 29.3974 -0.616644 10.0906 5 
2321 1 241.015 30.9097 -0.559215 6.32358 5 
2322 1 242.351 33.2446 0.0529922 3.76114 5 
2323 1 370.968 34.7761 -0.0727984 9.10824 5 
2324 1 118.546 1.43832 -1.93993 5.91303 5 
2325 1 116.322 0.770048 -0.567501 10.4047 5 
2326 1 116.06 3.13042 -1.84726 6.31658 5 
2327 1 117.538 5.33646 -1.0656 6.13118 5 
2328 1 115.09 6.8341 -1.24434 7.1748 5 
2329 1 116.819 9.70557 -0.169838 11.8869 5 
2330 1 114.131 10.6569 -0.499545 3.46713 5 
3220 1 372.387 33.619 -14.6784 4.92223e-05 1 
3222 1 369.948 35.1196 -14.7232 5.16955e-05 1 
3224 1 371.387 37.4703 -13.9454 7.77527e-05 1 
3225 1 368.946 38.9723 -13.9896 5.07633e-05 1 
3240 1 114.283 13.43 -14.5019 7.0944e-05 1 
3242 1 111.844 14.9383 -14.5389 7.95069e-05 1 
3244 1 244.515 17.2903 -13.7592 8.80486e-05 1 