ITEM: TIMESTEP
0
ITEM: NUMBER OF ATOMS
5204
ITEM: BOX BOUNDS xy xz yz pp pp ss
0.0000000000000000e+00 8.5354258727000001e+01 3.1931089596000000e+01
0.0000000000000000e+00 5.4613327286000001e+01 0.0000000000000000e+00
-8.8568294567216540e+01 8.8201348199738376e+01 0.0000000000000000e+00
ITEM: ATOMS id type x y z c_csym c_cna 
1 1 55.8966 54.5106 -5.14732 0.00713293 1 
2 1 56.3759 53.3103 -2.55475 0.132572 1 
3 1 53.7663 52.1995 -2.76199 0.197824 1 
4 1 54.4656 53.8866 -0.525084 5.69253 5 
8 1 53.8679 52.3818 -12.1235 0.000123698 1 
9 1 56.4792 53.5593 -12.0509 0.000175998 1 
10 1 54.6429 54.0345 -9.92104 0.000672821 1 
11 1 56.9477 52.3855 -9.47224 0.00111968 1 
12 1 54.3353 51.2088 -9.55063 0.000510499 1 
13 1 55.1179 52.8578 -7.35071 0.00274008 1 
14 1 54.8099 50.0337 -6.96936 0.00375777 1 
15 1 59.5519 53.5662 -9.4021 0.000332152 1 
16 1 57.7234 54.0386 -7.2625 0.0018196 1 
17 1 60.0167 52.3954 -6.81512 0.00228234 1 
18 1 57.4224 51.2072 -6.87984 0.00845714 1 
19 1 58.1999 52.8712 -4.67023 0.015532 1 
20 1 55.6038 51.6769 -4.77328 0.0244003 1 
21 1 57.9045 50.0226 -4.2901 7.23092 5 
22 1 55.2936 48.8563 -4.36389 0.0502085 1 
23 1 56.1514 50.4576 -2.16072 4.50367 5 
24 1 55.7281 47.7069 -1.66325 9.37902 5 
25 1 62.6199 53.5762 -6.75461 0.00410677 1 
26 1 60.8029 54.0446 -4.59119 0.0290132 1 
27 1 63.0838 52.4177 -4.15695 0.0910745 1 
28 1 60.4688 51.2264 -4.22251 0.0568594 1 
29 1 61.3019 52.8709 -1.9658 2.14135 5 
30 1 58.6832 51.6323 -2.03691 2.31242 5 
31 1 60.8343 49.9679 -1.74454 8.71375 5 
32 1 58.0566 49.0426 -0.496198 8.04966 5 
33 1 65.703 53.6144 -4.09541 0.12989 1 
34 1 63.8218 54.1605 -2.04231 6.40211 5 
35 1 66.1764 52.4519 -1.55062 6.56789 5 
36 1 63.4422 51.2692 -1.38568 6.61246 5 
37 1 68.8402 53.5717 -1.57532 7.20718 5 
48 1 55.7075 51.9069 -14.2593 2.75859e-05 1 
49 1 55.3993 49.0832 -13.8938 2.10192e-05 1 
52 1 60.9259 54.2624 -14.1211 1.06097e-05 1 
53 1 58.3171 53.0845 -14.1893 2.62544e-05 1 
54 1 60.6189 51.4386 -13.7559 1.59757e-05 1 
55 1 58.0098 50.2605 -13.8239 3.34033e-05 1 
56 1 58.7806 51.9133 -11.6134 0.000133963 1 
57 1 56.1717 50.7357 -11.6851 0.000106091 1 
58 1 58.4728 49.0895 -11.2478 0.000222108 1 
59 1 55.8622 47.9128 -11.3203 8.70306e-05 1 
60 1 56.6384 49.565 -9.10848 0.000731553 1 
61 1 54.0243 48.3886 -9.18468 0.000536303 1 
62 1 56.326 46.7412 -8.74721 0.000511638 1 
63 1 53.7091 45.5662 -8.81868 0.000628325 1 
64 1 54.4951 47.2208 -6.61569 0.0052508 1 
65 1 54.16 44.4008 -6.24884 0.005073 1 
66 1 65.8386 53.7934 -13.6195 9.70702e-06 1 
67 1 63.2284 52.6164 -13.6882 1.16982e-05 1 
68 1 63.9973 54.2699 -11.4801 5.95568e-05 1 
69 1 61.3881 53.0923 -11.5466 5.82506e-05 1 
70 1 63.6893 51.448 -11.1148 8.31783e-05 1 
71 1 61.0799 50.2692 -11.1818 0.000121178 1 
72 1 61.8489 51.9247 -8.97043 0.000508395 1 
73 1 59.2442 50.742 -9.03282 0.000894193 1 
74 1 61.5397 49.1005 -8.61077 0.00126923 1 
75 1 58.9371 47.9148 -8.66816 0.00200344 1 
76 1 59.7112 49.5629 -6.45174 0.00746282 1 
77 1 57.1064 48.39 -6.53694 0.0083082 1 
78 1 59.4007 46.7284 -6.0731 0.0297604 1 
79 1 56.7974 45.5782 -6.16628 0.011808 1 
80 1 57.5573 47.2442 -3.93637 1.66453 5 
81 1 54.9702 46.0444 -4.05906 0.0839929 1 
82 1 57.2557 44.3621 -3.62515 0.112291 1 
83 1 54.6028 43.2462 -3.6958 0.0398537 1 
84 1 55.41 44.8388 -1.45417 7.47691 5 
85 1 54.9672 42.0813 -1.21119 5.66194 5 
86 1 68.9115 53.8007 -10.9741 7.15205e-05 1 
87 1 66.3003 52.6247 -11.0452 6.40996e-05 1 
88 1 67.0722 54.2759 -8.83513 0.000463136 1 
89 1 64.4584 53.1025 -8.90474 0.000598254 1 
90 1 66.76 51.4602 -8.46902 0.000809656 1 
91 1 64.1484 50.285 -8.54205 0.000760542 1 
92 1 64.919 51.9508 -6.32194 0.00747744 1 
93 1 62.3038 50.7638 -6.3983 0.00642542 1 
94 1 64.6045 49.1236 -5.98469 0.00601752 1 
95 1 61.9821 47.9337 -6.04484 0.0167018 1 
96 1 62.7633 49.612 -3.87006 0.222361 1 
97 1 60.1369 48.363 -3.83951 6.88472 5 
98 1 62.4015 46.7249 -3.52022 0.456547 1 
99 1 59.9031 45.567 -3.40599 6.49148 5 
100 1 60.3783 47.3046 -0.926181 7.43851 5 
101 1 57.993 45.9816 -1.52404 13.9836 5 
4271 1 33.0609 21.3018 -0.215163 8.66022 5 
103 1 57.7159 43.2374 -0.920135 9.5331 5 
104 1 71.9811 53.806 -8.32501 0.00103047 1 
105 1 69.3729 52.6334 -8.39611 0.000294258 1 
106 1 70.1408 54.2852 -6.17461 0.0102013 1 
107 1 67.5356 53.108 -6.24798 0.00533362 1 
108 1 69.8314 51.4631 -5.82285 0.0103372 1 
109 1 67.2063 50.3032 -5.89386 0.00832464 1 
110 1 67.9969 51.937 -3.66636 0.204208 1 
111 1 65.3344 50.8194 -3.74637 0.115894 1 
112 1 67.662 49.1917 -3.31719 0.220699 1 
113 1 65.07 47.9747 -3.42971 0.31801 1 
114 1 65.7248 49.7183 -1.24667 6.72406 5 
115 1 63.1599 48.3267 -1.48065 10.0943 5 
116 1 65.2313 46.9175 -0.540583 7.34907 5 
117 1 62.6063 45.5519 -0.969871 8.46545 5 
118 1 75.0483 53.8015 -5.70269 0.00976398 1 
119 1 72.4507 52.6368 -5.74254 0.00843962 1 
120 1 73.2219 54.292 -3.50656 0.0565969 1 
121 1 70.6371 53.0937 -3.62473 0.0941444 1 
122 1 72.9041 51.4737 -3.12347 0.0778738 1 
123 1 70.2492 50.3204 -3.18183 0.283532 1 
124 1 71.0795 51.9266 -0.918279 6.30148 5 
125 1 68.3926 50.8391 -0.701578 9.35428 5 
126 1 70.8586 49.0934 -0.740132 2.07011 5 
127 1 67.9825 48.028 -0.867695 5.43719 5 
128 1 78.1248 53.8493 -3.1677 0.126305 1 
129 1 75.5277 52.6364 -3.1061 0.0359871 1 
130 1 76.3123 54.2986 -0.849392 6.0077 5 
131 1 73.7283 53.1206 -0.934529 4.1342 5 
132 1 76.0371 51.511 -0.426202 5.40323 5 
133 1 73.4023 50.2128 -0.581153 0.489251 1 
134 1 81.1772 53.8866 -0.525084 5.69253 5 
135 1 78.6712 52.6788 -0.713465 6.88443 5 
173 1 55.09 46.2598 -13.5284 2.01694e-05 1 
174 1 54.7799 43.4363 -13.1627 2.46459e-05 1 
187 1 60.3109 48.6147 -13.3913 2.3894e-05 1 
188 1 57.7013 47.4371 -13.4596 2.80862e-05 1 
189 1 60.0023 45.7903 -13.0276 1.36277e-05 1 
190 1 57.3916 44.6133 -13.0956 1.5469e-05 1 
191 1 58.1627 46.2664 -10.886 0.000163315 1 
192 1 55.5502 45.0897 -10.9562 0.000102193 1 
193 1 57.8507 43.4429 -10.5232 8.35264e-05 1 
194 1 55.2368 42.2672 -10.5903 0.000278938 1 
195 1 56.0085 43.9234 -8.38399 0.00122406 1 
196 1 55.6933 41.0973 -8.02844 0.00169534 1 
197 1 53.8413 41.5736 -5.89471 0.00366669 1 
206 1 65.5309 50.9706 -13.255 1.52145e-05 1 
207 1 62.9205 49.793 -13.324 1.92943e-05 1 
208 1 65.2227 48.1468 -12.892 2.33022e-05 1 
209 1 62.6122 46.9685 -12.9606 3.248e-05 1 
210 1 63.3807 48.6246 -10.7531 0.000184838 1 
211 1 60.7713 47.4438 -10.8183 0.000180177 1 
212 1 63.0709 45.7974 -10.3916 0.000297052 1 
213 1 60.462 44.6181 -10.4551 0.00011216 1 
214 1 61.2291 46.2702 -8.24569 0.00228079 1 
215 1 58.6236 45.0949 -8.31154 0.00176508 1 
216 1 60.9215 43.4401 -7.88247 0.00202213 1 
217 1 58.3108 42.2752 -7.95195 0.00123269 1 
218 1 59.0944 43.9338 -5.73352 0.0271032 1 
219 1 56.4617 42.7547 -5.82989 0.00637011 1 
220 1 58.7714 41.1164 -5.38696 0.0116348 1 
221 1 56.1502 39.9298 -5.47714 0.0180907 1 
222 1 56.9124 41.5937 -3.28008 0.0426731 1 
223 1 54.3063 40.3921 -3.36016 0.264798 1 
224 1 56.5468 38.8086 -2.91029 0.211963 1 
225 1 53.9914 37.6149 -2.82883 0.306894 1 
226 1 54.6425 39.3632 -0.488729 6.58443 5 
232 1 70.7508 53.3233 -13.1153 3.22774e-05 1 
233 1 68.1413 52.1471 -13.1846 1.40769e-05 1 
234 1 70.4431 50.4997 -12.7503 2.45021e-05 1 
235 1 67.8333 49.3241 -12.8211 2.01769e-05 1 
236 1 68.6023 50.9788 -10.6095 7.66308e-05 1 
237 1 65.9911 49.8032 -10.6829 0.000132214 1 
238 1 68.2937 48.1558 -10.2494 0.000140168 1 
239 1 65.6819 46.9775 -10.3226 0.000115945 1 
240 1 66.4493 48.6387 -8.11647 0.00109752 1 
241 1 63.8354 47.4576 -8.18921 0.00167819 1 
242 1 66.1386 45.809 -7.75608 0.00201966 1 
243 1 63.5274 44.6227 -7.82942 0.0030745 1 
244 1 64.2777 46.2976 -5.64809 0.0253443 1 
245 1 61.6818 45.0768 -5.67836 0.0377275 1 
246 1 63.9772 43.4483 -5.27415 0.056149 1 
247 1 61.3846 42.2543 -5.29562 0.0251461 1 
248 1 62.1701 43.8717 -3.05696 5.95696 5 
249 1 59.5407 42.7793 -3.16177 1.56014 5 
250 1 61.8792 41.1005 -2.64447 6.08683 5 
251 1 59.2128 39.9158 -2.87199 0.128991 1 
252 1 59.9748 41.4737 -0.756113 13.4975 5 
253 1 57.373 40.4108 -0.739589 8.12816 5 
2110 1 59.7725 21.3018 -0.215163 8.66022 5 
255 1 56.8746 37.7364 -0.439114 9.83024 5 
257 1 73.3592 54.4999 -13.0498 4.2113e-05 1 
258 1 75.6614 52.8518 -12.6215 8.39248e-05 1 
259 1 73.0519 51.6751 -12.6835 4.08191e-05 1 
260 1 73.8198 53.328 -10.4768 0.000208889 1 
261 1 71.212 52.1534 -10.5394 0.000104941 1 
262 1 73.5125 50.5032 -10.1086 0.000176408 1 
263 1 70.9035 49.3303 -10.1756 0.000127182 1 
264 1 71.6729 50.9852 -7.96316 0.00094432 1 
265 1 69.0596 49.8125 -8.03453 0.000570934 1 
266 1 71.3633 48.1631 -7.60486 0.0027385 1 
267 1 68.7517 46.9908 -7.68033 0.00165897 1 
268 1 69.5169 48.6543 -5.45663 0.0111036 1 
269 1 66.9037 47.4899 -5.55651 0.012226 1 
270 1 69.1855 45.8343 -5.12179 0.0195123 1 
271 1 66.5898 44.6242 -5.19864 0.0388788 1 
272 1 67.2935 46.3529 -3.01317 0.355858 1 
273 1 64.7335 45.1934 -3.15139 0.846014 1 
274 1 67.069 43.476 -2.58117 5.65278 5 
275 1 64.4264 42.1598 -2.80302 1.4727 1 
276 1 64.8888 43.8894 -0.877347 11.6761 5 
1077 1 49.0264 48.6085 -0.215163 8.66022 5 
280 1 78.2736 54.0298 -12.5585 0.000144106 1 
281 1 76.4304 54.5057 -10.4222 0.000499099 1 
282 1 78.7384 52.8564 -9.99278 0.000604051 1 
283 1 76.1226 51.6789 -10.052 0.000344994 1 
284 1 76.8927 53.3313 -7.86231 0.00296441 1 
285 1 74.281 52.1552 -7.90301 0.000939634 1 
286 1 76.5834 50.5066 -7.48269 0.00179014 1 
287 1 73.9707 49.3323 -7.53211 0.00271227 1 
288 1 74.7384 50.9886 -5.32064 0.00957978 1 
289 1 72.117 49.8325 -5.38248 0.0328418 1 
290 1 74.4498 48.1612 -4.97949 0.0308592 1 
291 1 71.8151 46.9863 -5.06377 0.0321731 1 
292 1 72.5956 48.6537 -2.91978 0.241449 1 
293 1 69.9636 47.4889 -2.88574 0.317552 1 
294 1 72.234 45.788 -2.53071 1.16506 1 
295 1 69.6261 44.7306 -2.61999 1.18849 5 
297 1 67.3461 45.3119 -0.439555 5.81297 5 
300 1 81.3545 54.0345 -9.92104 0.000672821 1 
301 1 79.5151 54.5123 -7.80594 0.00309514 1 
302 1 81.8295 52.8578 -7.35071 0.00274008 1 
303 1 79.2088 51.6825 -7.42665 0.00262043 1 
304 1 79.9885 53.3503 -5.25836 0.0156057 1 
305 1 77.3601 52.1617 -5.30897 0.0169636 1 
306 1 79.6915 50.506 -4.85428 0.0302267 1 
307 1 77.0522 49.3414 -4.91987 0.00960167 1 
308 1 77.8269 51.0185 -2.77047 0.162243 1 
309 1 75.2214 49.8482 -2.74598 0.110263 1 
310 1 77.5414 48.2156 -2.37019 0.305223 1 
311 1 75.0046 46.9674 -2.4856 6.55385 5 
313 1 73.2096 47.403 -0.596279 7.99031 5 
314 1 84.435 54.0386 -7.2625 0.0018196 1 
315 1 82.6082 54.5106 -5.14732 0.00713293 1 
316 1 31.4883 52.8712 -4.67023 0.015532 1 
317 1 82.3153 51.6769 -4.77328 0.0244003 1 
318 1 83.0875 53.3103 -2.55475 0.132572 1 
319 1 80.4779 52.1995 -2.76199 0.197824 1 
320 1 82.863 50.4576 -2.16072 4.50367 5 
321 1 80.1536 49.3564 -2.24356 6.19428 5 
324 1 34.0913 54.0446 -4.59119 0.0290132 1 
325 1 34.5903 52.8709 -1.9658 2.14135 5 
326 1 31.9716 51.6323 -2.03691 2.31242 5 
329 1 37.1102 54.1605 -2.04231 6.40211 5 
399 1 56.3146 40.1363 -14.9383 5.42845e-06 1 
401 1 54.4709 40.6127 -12.7966 3.85032e-05 1 
402 1 54.1649 37.7882 -12.4315 5.81162e-05 1 
422 1 61.5356 42.49 -14.8039 5.11664e-06 1 
423 1 58.925 41.3132 -14.8714 2.96895e-06 1 
424 1 59.693 42.9661 -12.6639 1.16643e-05 1 
425 1 57.0817 41.7896 -12.7308 1.59946e-05 1 
426 1 59.3843 40.1421 -12.2989 1.62983e-05 1 
427 1 56.7736 38.9658 -12.3655 2.51308e-05 1 
428 1 57.5406 40.6192 -10.1596 0.000150758 1 
429 1 54.9284 39.4412 -10.2251 0.00025224 1 
430 1 57.2313 37.7954 -9.79187 0.000263823 1 
431 1 54.6251 36.6155 -9.85481 0.000567443 1 
432 1 55.385 38.2674 -7.65239 0.00245636 1 
433 1 55.0823 35.4437 -7.26322 0.00375051 1 
449 1 66.7565 44.8453 -14.667 7.90715e-06 1 
450 1 64.1461 43.6674 -14.7358 5.90532e-06 1 
451 1 64.9142 45.3214 -12.5289 2.33724e-05 1 
452 1 62.3036 44.1429 -12.5968 3.60863e-05 1 
453 1 64.6059 42.4954 -12.1637 3.84305e-05 1 
454 1 61.9952 41.318 -12.2318 3.18302e-05 1 
455 1 62.7626 42.969 -10.0268 0.000284133 1 
456 1 60.1519 41.794 -10.0928 0.0001471 1 
457 1 62.4541 40.1438 -9.65895 0.000239975 1 
458 1 59.8426 38.97 -9.72502 0.000235571 1 
459 1 60.6097 40.6211 -7.52376 0.00235939 1 
460 1 57.9995 39.4491 -7.58841 0.00181446 1 
461 1 60.2962 37.7978 -7.14238 0.00363525 1 
462 1 57.6813 36.6285 -7.21297 0.00234233 1 
463 1 58.4377 38.2766 -5.01202 0.012721 1 
464 1 55.8261 37.0978 -5.05547 0.023255 1 
465 1 58.1144 35.4746 -4.63033 0.0333425 1 
466 1 55.5514 34.2706 -4.66092 0.0272751 1 
467 1 56.2304 35.9506 -2.42335 0.375652 1 
468 1 53.7024 34.7702 -2.54215 0.198485 1 
469 1 56.0981 33.1215 -2.0379 5.14602 5 
480 1 72.2839 50.0222 -14.8917 1.63543e-05 1 
481 1 69.6746 48.8462 -14.9604 6.68693e-06 1 
482 1 71.9766 47.1987 -14.526 2.5874e-05 1 
483 1 69.3669 46.0227 -14.5967 8.74734e-06 1 
484 1 70.1356 47.6761 -12.3864 3.29744e-05 1 
485 1 67.5249 46.5 -12.4589 3.4272e-05 1 
486 1 69.8272 44.8528 -12.0236 5.37328e-05 1 
487 1 67.2163 43.6746 -12.0954 4.53511e-05 1 
488 1 67.9837 45.3309 -9.88922 0.000250082 1 
489 1 65.3733 44.1492 -9.95898 0.000206521 1 
490 1 67.6738 42.5025 -9.525 0.000336795 1 
491 1 65.0647 41.3202 -9.59037 0.00026338 1 
492 1 65.8287 42.9698 -7.38935 0.00148848 1 
493 1 63.2203 41.7899 -7.45683 0.00363214 1 
494 1 65.5231 40.1394 -7.00992 0.0104453 1 
495 1 62.9102 38.9609 -7.08461 0.00566644 1 
496 1 63.6661 40.5763 -4.9009 0.104058 1 
497 1 61.067 39.459 -4.96301 0.0480514 1 
498 1 63.3684 37.769 -4.48883 0.0647059 1 
499 1 60.7489 36.6264 -4.54608 0.0790644 1 
500 1 61.4563 38.314 -2.44067 7.16473 5 
501 1 58.8568 37.1356 -2.43434 7.58642 5 
502 1 61.1605 35.4837 -1.78659 3.95714 5 
503 1 58.5721 34.4224 -2.02096 2.98451 5 
510 1 77.5038 52.3762 -14.7614 2.93087e-05 1 
511 1 74.8932 51.1988 -14.8261 1.5947e-05 1 
512 1 77.1959 49.5518 -14.3946 2.23853e-05 1 
513 1 74.5857 48.3748 -14.459 2.05245e-05 1 
514 1 75.3537 50.0269 -12.253 5.74133e-05 1 
515 1 72.7446 48.8508 -12.3162 8.74741e-05 1 
516 1 75.0458 47.2033 -11.8833 6.81918e-05 1 
517 1 72.4374 46.0276 -11.9492 0.000171471 1 
518 1 73.2058 47.6778 -9.7381 0.000709166 1 
519 1 70.5961 46.5057 -9.81217 0.000267877 1 
520 1 72.8979 44.8548 -9.36702 0.00142715 1 
521 1 70.2864 43.683 -9.45197 0.000502556 1 
522 1 71.0525 45.331 -7.23774 0.0045127 1 
523 1 68.438 44.1619 -7.32689 0.00300808 1 
524 1 70.7439 42.5134 -6.88454 0.00644462 1 
525 1 68.1272 41.3262 -6.95589 0.00351672 1 
526 1 68.884 42.9906 -4.78206 0.0442959 1 
527 1 66.2915 41.784 -4.80985 0.0822209 1 
528 1 68.5583 40.1394 -4.37517 0.0706854 1 
529 1 65.9612 38.9946 -4.35942 0.0995316 1 
530 1 66.7296 40.6691 -2.05584 5.41523 5 
531 1 64.0601 39.3467 -2.23637 6.09782 5 
532 1 66.4283 37.8454 -1.72592 3.75741 5 
533 1 63.8923 36.5853 -1.85267 6.01796 5 
536 1 80.1153 53.5539 -14.6941 3.27687e-05 1 
537 1 82.4191 51.9069 -14.2593 2.75859e-05 1 
538 1 79.8076 50.7294 -14.3285 2.52953e-05 1 
539 1 80.5795 52.3818 -12.1235 0.000123698 1 
540 1 77.9657 51.2044 -12.1912 0.000108354 1 
541 1 80.2706 49.5584 -11.7565 8.64979e-05 1 
542 1 77.6566 48.3808 -11.822 7.95288e-05 1 
543 1 78.4288 50.0331 -9.6215 0.00043776 1 
544 1 75.814 48.8546 -9.67866 0.000224315 1 
545 1 78.118 47.2105 -9.25113 0.000459983 1 
546 1 75.5056 46.0306 -9.30509 0.000439464 1 
547 1 76.2798 47.6801 -7.10597 0.00217602 1 
548 1 73.6704 46.4972 -7.15571 0.00926002 1 
549 1 75.9627 44.857 -6.71932 0.0158031 1 
550 1 73.3579 43.6777 -6.77163 0.0225134 1 
551 1 74.1235 45.3075 -4.55977 0.285272 1 
552 1 71.5057 44.1387 -4.65719 0.0755642 1 
553 1 73.8317 42.5486 -4.07241 0.310203 1 
554 1 71.201 41.3453 -4.33318 0.0749457 1 
555 1 71.9297 42.9431 -2.02801 1.7307 5 
556 1 69.3391 41.7595 -2.28472 5.90934 5 
557 1 71.6763 40.2045 -1.79869 5.21144 5 
558 1 68.9831 39.0192 -1.75103 6.3489 5 
559 1 34.2143 54.2624 -14.1211 1.06097e-05 1 
560 1 31.6056 53.0845 -14.1893 2.62544e-05 1 
561 1 83.1908 53.5593 -12.0509 0.000175998 1 
562 1 32.069 51.9133 -11.6134 0.000133963 1 
563 1 82.8833 50.7357 -11.6851 0.000106091 1 
564 1 83.6593 52.3855 -9.47224 0.00111968 1 
565 1 81.0469 51.2088 -9.55063 0.000510499 1 
566 1 29.9269 49.565 -9.10848 0.000731553 1 
567 1 80.7359 48.3886 -9.18468 0.000536303 1 
568 1 81.5214 50.0337 -6.96936 0.00375777 1 
569 1 78.8961 48.8662 -7.05596 0.00346401 1 
570 1 27.7835 47.2208 -6.61569 0.0052508 1 
571 1 78.5811 46.041 -6.68519 0.00710576 1 
572 1 79.3739 47.7118 -4.51213 0.05423 1 
573 1 76.7717 46.5002 -4.53264 0.110795 1 
574 1 79.0087 44.8731 -4.10665 0.107085 1 
575 1 76.3877 43.7275 -4.04181 0.252518 1 
576 1 77.2118 45.3962 -1.74804 5.10448 5 
577 1 74.5361 44.2844 -1.5525 7.45666 5 
578 1 76.8597 42.4879 -1.56338 6.17791 5 
579 1 74.276 41.3371 -1.39334 6.15076 5 
580 1 37.2857 54.2699 -11.4801 5.95568e-05 1 
581 1 34.6765 53.0923 -11.5466 5.82506e-05 1 
582 1 32.8403 53.5662 -9.4021 0.000332152 1 
583 1 35.1373 51.9247 -8.97043 0.000508395 1 
584 1 32.5326 50.742 -9.03282 0.000894193 1 
585 1 33.3051 52.3954 -6.81512 0.00228234 1 
586 1 30.7108 51.2072 -6.87984 0.00845714 1 
587 1 32.9996 49.5629 -6.45174 0.00746282 1 
588 1 30.3948 48.39 -6.53694 0.0083082 1 
589 1 31.1929 50.0226 -4.2901 7.23092 5 
590 1 28.582 48.8563 -4.36389 0.0502085 1 
591 1 30.8457 47.2442 -3.93637 1.66453 5 
592 1 28.2587 46.0444 -4.05906 0.0839929 1 
593 1 29.0165 47.7069 -1.66325 9.37902 5 
594 1 79.8016 46.5476 -2.04852 5.95763 5 
595 1 28.6984 44.8388 -1.45417 7.47691 5 
596 1 26.0717 43.763 -1.54244 5.62612 5 
597 1 40.3606 54.2759 -8.83513 0.000463136 1 
598 1 37.7468 53.1025 -8.90474 0.000598254 1 
599 1 35.9083 53.5762 -6.75461 0.00410677 1 
600 1 38.2074 51.9508 -6.32194 0.00747744 1 
601 1 35.5922 50.7638 -6.3983 0.00642542 1 
602 1 36.3723 52.4177 -4.15695 0.0910745 1 
603 1 33.7572 51.2264 -4.22251 0.0568594 1 
604 1 36.0517 49.612 -3.87006 0.222361 1 
605 1 33.4253 48.363 -3.83951 6.88472 5 
606 1 34.1227 49.9679 -1.74454 8.71375 5 
607 1 31.345 49.0426 -0.496198 8.04966 5 
608 1 33.6667 47.3046 -0.926181 7.43851 5 
609 1 31.2814 45.9816 -1.52404 13.9836 5 
610 1 43.4292 54.2852 -6.17461 0.0102013 1 
611 1 40.824 53.108 -6.24798 0.00533362 1 
612 1 38.9914 53.6144 -4.09541 0.12989 1 
613 1 41.2853 51.937 -3.66636 0.204208 1 
614 1 38.6228 50.8194 -3.74637 0.115894 1 
615 1 39.4648 52.4519 -1.55062 6.56789 5 
616 1 36.7306 51.2692 -1.38568 6.61246 5 
617 1 39.0132 49.7183 -1.24667 6.72406 5 
618 1 36.4483 48.3267 -1.48065 10.0943 5 
619 1 46.5103 54.292 -3.50656 0.0565969 1 
620 1 43.9255 53.0937 -3.62473 0.0941444 1 
621 1 42.1287 53.5717 -1.57532 7.20718 5 
622 1 44.3679 51.9266 -0.918279 6.30148 5 
623 1 41.681 50.8391 -0.701578 9.35428 5 
624 1 49.6008 54.2986 -0.849392 6.0077 5 
625 1 47.0167 53.1206 -0.934529 4.1342 5 
747 1 56.0078 37.3126 -14.5734 9.50408e-06 1 
748 1 55.7024 34.4888 -14.2088 2.03502e-05 1 
749 1 53.8612 34.9644 -12.067 9.55921e-05 1 
777 1 61.2277 39.6662 -14.439 7.80263e-06 1 
778 1 58.6173 38.4897 -14.5066 6.34151e-06 1 
779 1 60.9204 36.8435 -14.0743 1.32779e-05 1 
780 1 58.3106 35.6666 -14.1419 1.51867e-05 1 
781 1 59.0762 37.3197 -11.9334 4.67855e-05 1 
782 1 56.4675 36.142 -11.9988 7.60818e-05 1 
783 1 58.7696 34.498 -11.5684 0.000141551 1 
784 1 56.1637 33.3188 -11.6331 0.000151276 1 
785 1 56.9252 34.9727 -9.41938 0.000609327 1 
786 1 54.325 33.7935 -9.48761 0.000635406 1 
787 1 56.6266 32.1495 -9.05399 0.00105377 1 
788 1 54.0262 30.9696 -9.12858 0.00102549 1 
789 1 54.7962 32.6221 -6.90303 0.00447836 1 
790 1 54.5022 29.801 -6.54562 0.00959628 1 
814 1 66.4485 42.0207 -14.3022 9.38072e-06 1 
815 1 63.8383 40.843 -14.3707 8.84616e-06 1 
816 1 66.1408 39.1968 -13.9365 1.52844e-05 1 
817 1 63.5308 38.0198 -14.0052 1.53159e-05 1 
818 1 64.2978 39.6709 -11.7968 5.56568e-05 1 
819 1 61.687 38.4951 -11.8653 4.98096e-05 1 
820 1 63.9902 36.8495 -11.4295 0.00013113 1 
821 1 61.3796 35.6747 -11.5009 0.000106588 1 
822 1 62.1442 37.3236 -9.28847 0.000548173 1 
823 1 59.5325 36.1523 -9.35851 0.000531443 1 
824 1 61.8382 34.5094 -8.92832 0.000827376 1 
825 1 59.2273 33.3329 -8.99775 0.00118761 1 
826 1 59.9837 34.9942 -6.78712 0.00708902 1 
827 1 57.3834 33.8056 -6.83405 0.00428193 1 
828 1 59.6851 32.1738 -6.44101 0.0123986 1 
829 1 57.0891 30.9851 -6.46273 0.0108707 1 
830 1 57.8633 32.648 -4.23344 0.0487915 1 
831 1 55.2551 31.4695 -4.28346 0.0744605 1 
832 1 57.5767 29.8041 -3.89321 0.0365708 1 
833 1 54.996 28.6198 -3.97615 0.046568 1 
834 1 55.7721 30.2947 -1.74911 7.22047 5 
835 1 55.4188 27.3804 -1.32902 1.30263 5 
855 1 71.669 44.3758 -14.1615 2.36546e-05 1 
856 1 69.0589 43.1989 -14.2329 1.24185e-05 1 
857 1 71.3611 41.5531 -13.7979 2.36093e-05 1 
858 1 68.7508 40.375 -13.8681 1.25658e-05 1 
859 1 69.5184 42.0289 -11.6603 8.34556e-05 1 
860 1 66.9078 40.849 -11.7286 7.48049e-05 1 
861 1 69.2092 39.2053 -11.2942 0.000112702 1 
862 1 66.5998 38.026 -11.3603 0.000120317 1 
863 1 67.3651 39.6752 -9.15102 0.00104728 1 
864 1 64.7562 38.4974 -9.21872 0.000753916 1 
865 1 67.0566 36.8571 -8.77767 0.000876162 1 
866 1 64.4495 35.6832 -8.84806 0.00100411 1 
867 1 65.2155 37.3345 -6.6226 0.00740813 1 
868 1 62.6001 36.154 -6.70302 0.00635996 1 
869 1 64.8995 34.524 -6.26328 0.0143342 1 
870 1 62.2992 33.3511 -6.36231 0.010806 1 
871 1 63.0253 34.9948 -4.07648 0.141303 1 
872 1 60.4229 33.8612 -4.24242 0.155805 1 
873 1 62.7747 32.1929 -3.82646 0.0516256 1 
874 1 60.1396 31.0097 -3.92242 0.112591 1 
875 1 60.9155 32.7597 -1.81608 3.23612 5 
876 1 58.3543 31.4708 -1.60057 5.70861 5 
877 1 60.6643 29.7317 -1.49698 6.44779 5 
878 1 58.111 28.6454 -1.26124 5.2594 5 
894 1 76.8876 46.7283 -14.0269 2.07923e-05 1 
895 1 74.2781 45.5516 -14.0919 4.27004e-05 1 
896 1 76.5793 43.9054 -13.6593 4.41282e-05 1 
897 1 73.9706 42.7294 -13.7267 4.27353e-05 1 
898 1 74.7376 44.3808 -11.5134 0.000267039 1 
899 1 72.1294 43.2062 -11.5855 0.000157899 1 
900 1 74.4301 41.5606 -11.1485 0.000306303 1 
901 1 71.8206 40.3849 -11.2234 0.00020498 1 
902 1 72.5896 42.0377 -9.00661 0.00191429 1 
903 1 69.9757 40.8597 -9.08893 0.000791011 1 
904 1 72.2801 39.2249 -8.6474 0.00347692 1 
905 1 69.6628 38.0373 -8.7187 0.00141397 1 
906 1 70.4254 39.6933 -6.52159 0.00888464 1 
907 1 67.8113 38.5016 -6.55354 0.0115751 1 
908 1 70.11 36.8689 -6.14872 0.00720528 1 
909 1 67.5138 35.6896 -6.19112 0.00428259 1 
910 1 68.2607 37.3321 -3.93459 0.0622002 1 
911 1 65.6784 36.1763 -4.04166 0.0513495 1 
912 1 67.9886 34.5323 -3.59127 0.0757549 1 
913 1 65.3713 33.3329 -3.7431 0.0572454 1 
914 1 66.1367 34.9187 -1.5404 6.84755 5 
915 1 63.5712 33.8038 -1.52762 2.99545 5 
916 1 65.941 32.1815 -1.23204 6.33561 5 
917 1 63.1269 31.0326 -1.31968 5.33714 5 
929 1 82.1109 49.0832 -13.8938 2.10192e-05 1 
930 1 79.499 47.9057 -13.9618 1.95338e-05 1 
931 1 28.3784 46.2598 -13.5284 2.01694e-05 1 
932 1 79.1897 45.0823 -13.5947 2.20576e-05 1 
933 1 79.9601 46.7355 -11.3895 8.75516e-05 1 
934 1 77.347 45.5575 -11.4522 0.000106611 1 
935 1 26.2247 43.9124 -11.0209 0.000154211 1 
936 1 77.037 42.7356 -11.0822 0.000274994 1 
937 1 77.8035 44.3873 -8.87612 0.00146798 1 
938 1 75.1954 43.2097 -8.9276 0.00264741 1 
939 1 77.4888 41.5684 -8.50145 0.00339286 1 
940 1 74.8892 40.3965 -8.56313 0.00357133 1 
941 1 75.6486 42.0501 -6.30972 0.0292023 1 
942 1 73.0583 40.8905 -6.41015 0.0336996 1 
943 1 75.35 39.2228 -5.98645 0.011195 1 
944 1 72.7354 38.0654 -6.09721 0.0166565 1 
945 1 73.5145 39.7329 -3.86376 0.134583 1 
946 1 70.8672 38.5249 -3.97426 0.0535712 1 
947 1 73.1884 36.8594 -3.61212 0.126646 1 
948 1 70.5527 35.701 -3.58058 0.0628365 1 
949 1 71.3746 37.3075 -1.46943 7.29099 5 
950 1 68.7135 36.2348 -1.23453 5.91204 5 
951 1 70.9948 34.5847 -1.00958 6.52253 5 
952 1 68.4472 33.4069 -0.919351 4.09402 5 
960 1 33.9073 51.4386 -13.7559 1.59757e-05 1 
961 1 31.2982 50.2605 -13.8239 3.34033e-05 1 
962 1 33.5993 48.6147 -13.3913 2.3894e-05 1 
963 1 30.9897 47.4371 -13.4596 2.80862e-05 1 
964 1 31.7612 49.0895 -11.2478 0.000222108 1 
965 1 29.1506 47.9128 -11.3203 8.70306e-05 1 
966 1 31.4512 46.2664 -10.886 0.000163315 1 
967 1 28.8386 45.0897 -10.9562 0.000102193 1 
968 1 29.6144 46.7412 -8.74721 0.000511638 1 
969 1 26.9975 45.5662 -8.81868 0.000628325 1 
970 1 29.2969 43.9234 -8.38399 0.00122406 1 
971 1 26.6751 42.7449 -8.4464 0.00200837 1 
972 1 27.4484 44.4008 -6.24884 0.005073 1 
973 1 78.2362 43.2267 -6.28904 0.0270493 1 
974 1 27.1297 41.5736 -5.89471 0.00366669 1 
975 1 24.5122 40.3946 -5.93841 0.0215345 1 
976 1 25.2725 42.0584 -3.77496 0.116079 1 
977 1 76.093 40.858 -3.70645 0.101143 1 
978 1 24.951 39.1628 -3.42087 0.294777 1 
979 1 22.4026 38.0294 -3.40684 0.209679 1 
980 1 76.5913 39.6923 -1.04921 6.30388 5 
981 1 73.9154 38.4516 -1.47048 4.45395 5 
982 1 22.7944 36.8532 -0.58512 7.11047 5 
983 1 73.7065 35.7158 -1.05311 6.73938 5 
987 1 39.127 53.7934 -13.6195 9.70702e-06 1 
988 1 36.5168 52.6164 -13.6882 1.16982e-05 1 
989 1 38.8193 50.9706 -13.255 1.52145e-05 1 
990 1 36.2089 49.793 -13.324 1.92943e-05 1 
991 1 36.9777 51.448 -11.1148 8.31783e-05 1 
992 1 34.3684 50.2692 -11.1818 0.000121178 1 
993 1 36.6691 48.6246 -10.7531 0.000184838 1 
994 1 34.0597 47.4438 -10.8183 0.000180177 1 
995 1 34.8282 49.1005 -8.61077 0.00126923 1 
996 1 32.2255 47.9148 -8.66816 0.00200344 1 
997 1 34.5175 46.2702 -8.24569 0.00228079 1 
998 1 31.9121 45.0949 -8.31154 0.00176508 1 
999 1 32.6891 46.7284 -6.0731 0.0297604 1 
1000 1 30.0859 45.5782 -6.16628 0.011808 1 
1001 1 32.3828 43.9338 -5.73352 0.0271032 1 
1002 1 29.7501 42.7547 -5.82989 0.00637011 1 
1003 1 30.5441 44.3621 -3.62515 0.112291 1 
1004 1 27.8913 43.2462 -3.6958 0.0398537 1 
1005 1 30.2008 41.5937 -3.28008 0.0426731 1 
1006 1 27.5947 40.3921 -3.36016 0.264798 1 
1007 1 28.2556 42.0813 -1.21119 5.66194 5 
1008 1 25.7536 40.7144 -1.37668 7.58253 5 
1009 1 27.931 39.3632 -0.488729 6.58443 5 
1010 1 25.3596 37.9431 -0.804141 6.85104 5 
1012 1 44.0392 53.3233 -13.1153 3.22774e-05 1 
1013 1 41.4297 52.1471 -13.1846 1.40769e-05 1 
1014 1 42.1999 53.8007 -10.9741 7.15205e-05 1 
1015 1 39.5887 52.6247 -11.0452 6.40996e-05 1 
1016 1 41.8907 50.9788 -10.6095 7.66308e-05 1 
1017 1 39.2796 49.8032 -10.6829 0.000132214 1 
1018 1 40.0484 51.4602 -8.46902 0.000809656 1 
1019 1 37.4368 50.285 -8.54205 0.000760542 1 
1020 1 39.7377 48.6387 -8.11647 0.00109752 1 
1021 1 37.1238 47.4576 -8.18921 0.00167819 1 
1022 1 37.8929 49.1236 -5.98469 0.00601752 1 
1023 1 35.2705 47.9337 -6.04484 0.0167018 1 
1024 1 37.5661 46.2976 -5.64809 0.0253443 1 
1025 1 34.9702 45.0768 -5.67836 0.0377275 1 
1026 1 35.6899 46.7249 -3.52022 0.456547 1 
1027 1 33.1915 45.567 -3.40599 6.49148 5 
1028 1 35.4585 43.8717 -3.05696 5.95696 5 
1029 1 32.8291 42.7793 -3.16177 1.56014 5 
312 1 75.738 48.6085 -0.215163 8.66022 5 
1031 1 31.0043 43.2374 -0.920135 9.5331 5 
1032 1 33.2632 41.4737 -0.756113 13.4975 5 
1033 1 30.6615 40.4108 -0.739589 8.12816 5 
1034 1 46.6477 54.4999 -13.0498 4.2113e-05 1 
1035 1 47.1082 53.328 -10.4768 0.000208889 1 
1036 1 44.5004 52.1534 -10.5394 0.000104941 1 
1037 1 45.2695 53.806 -8.32501 0.00103047 1 
1038 1 42.6613 52.6334 -8.39611 0.000294258 1 
1039 1 44.9613 50.9852 -7.96316 0.00094432 1 
1040 1 42.348 49.8125 -8.03453 0.000570934 1 
1041 1 43.1198 51.4631 -5.82285 0.0103372 1 
1042 1 40.4947 50.3032 -5.89386 0.00832464 1 
1043 1 42.8053 48.6543 -5.45663 0.0111036 1 
1044 1 40.1921 47.4899 -5.55651 0.012226 1 
1045 1 40.9504 49.1917 -3.31719 0.220699 1 
1046 1 38.3584 47.9747 -3.42971 0.31801 1 
1047 1 40.5819 46.3529 -3.01317 0.355858 1 
1048 1 38.0219 45.1934 -3.15139 0.846014 1 
1049 1 38.5197 46.9175 -0.540583 7.34907 5 
1050 1 35.8947 45.5519 -0.969871 8.46545 5 
1051 1 38.1772 43.8894 -0.877347 11.6761 5 
5410 1 26.6686 16.2247 -0.315188 11.0058 5 
1053 1 49.7188 54.5057 -10.4222 0.000499099 1 
1054 1 50.1811 53.3313 -7.86231 0.00296441 1 
1055 1 47.5694 52.1552 -7.90301 0.000939634 1 
1056 1 48.3367 53.8015 -5.70269 0.00976398 1 
1057 1 45.7391 52.6368 -5.74254 0.00843962 1 
1058 1 48.0268 50.9886 -5.32064 0.00957978 1 
1059 1 45.4055 49.8325 -5.38248 0.0328418 1 
1060 1 46.1925 51.4737 -3.12347 0.0778738 1 
1061 1 43.5376 50.3204 -3.18183 0.283532 1 
1062 1 45.884 48.6537 -2.91978 0.241449 1 
1063 1 43.252 47.4889 -2.88574 0.317552 1 
1064 1 44.147 49.0934 -0.740132 2.07011 5 
1065 1 41.2709 48.028 -0.867695 5.43719 5 
1067 1 40.6345 45.3119 -0.439555 5.81297 5 
1068 1 52.8035 54.5123 -7.80594 0.00309514 1 
1069 1 53.277 53.3503 -5.25836 0.0156057 1 
1070 1 50.6485 52.1617 -5.30897 0.0169636 1 
1071 1 51.4132 53.8493 -3.1677 0.126305 1 
1072 1 48.8162 52.6364 -3.1061 0.0359871 1 
1073 1 51.1154 51.0185 -2.77047 0.162243 1 
1074 1 48.5098 49.8482 -2.74598 0.110263 1 
1075 1 49.3255 51.511 -0.426202 5.40323 5 
1076 1 46.6907 50.2128 -0.581153 0.489251 1 
1078 1 46.498 47.403 -0.596279 7.99031 5 
1079 1 51.9596 52.6788 -0.713465 6.88443 5 
1259 1 55.3977 31.6649 -13.845 3.59849e-05 1 
1260 1 55.0922 28.8406 -13.4806 4.16594e-05 1 
1297 1 60.614 34.0211 -13.7111 3.9866e-05 1 
1298 1 58.0051 32.8431 -13.778 2.91513e-05 1 
1299 1 60.3086 31.1973 -13.3496 7.17295e-05 1 
1300 1 57.6999 30.0185 -13.4146 3.71793e-05 1 
1301 1 58.4657 31.6743 -11.2063 0.000195851 1 
1302 1 55.8608 30.4947 -11.2699 0.000219807 1 
1303 1 58.1614 28.8479 -10.8435 0.00023934 1 
1304 1 55.5551 27.6701 -10.9046 0.000216643 1 
1305 1 56.326 29.3253 -8.69159 0.00153729 1 
1306 1 53.7205 28.1468 -8.76246 0.000931766 1 
1307 1 56.0155 26.4993 -8.32501 0.00103047 1 
1308 1 54.1752 26.9786 -6.17461 0.0102013 1 
1309 1 53.8658 24.1564 -5.82285 0.0103372 1 
1342 1 65.8338 36.3742 -13.5711 2.90558e-05 1 
1343 1 63.2242 35.1978 -13.6413 2.76538e-05 1 
1344 1 65.5284 33.5518 -13.2087 4.59312e-05 1 
1345 1 62.9189 32.3752 -13.2807 7.30106e-05 1 
1346 1 63.6851 34.0303 -11.0681 0.000208379 1 
1347 1 61.0744 32.8538 -11.1416 0.00029162 1 
1348 1 63.3822 31.2072 -10.7147 0.000419845 1 
1349 1 60.77 30.0283 -10.7843 0.000487247 1 
1350 1 61.536 31.6897 -8.58146 0.00195591 1 
1351 1 58.925 30.5065 -8.63841 0.00193101 1 
1352 1 61.2336 28.8581 -8.23209 0.00264226 1 
1353 1 58.6231 27.674 -8.27574 0.00101006 1 
1354 1 59.3889 29.3319 -6.08837 0.00818246 1 
1355 1 56.7942 28.15 -6.11564 0.00598216 1 
1356 1 59.0828 26.4948 -5.70269 0.00976398 1 
1357 1 56.4851 25.3301 -5.74254 0.00843962 1 