ITEM: TIMESTEP
0
ITEM: NUMBER OF ATOMS
24202
ITEM: BOX BOUNDS xy xz yz pp pp ss
-172.917203429 353.581468689 -172.917203429
0 38.333040686 0
-106.1209042477449 102.3200233147898 0
ITEM: ATOMS id type x y z c_csym c_cna 
22678 1 4.45878 0.948516 -13.7438 0.000551679 1 
22679 1 1.84866 0.460193 -12.6676 0.000802541 1 
22681 1 1.14301 3.2066 -13.0871 0.00069294 1 
22685 1 7.06066 1.43787 -14.819 0.000366459 1 
22689 1 3.75527 3.69209 -14.1693 0.000474413 1 
22692 1 3.05196 6.435 -14.5942 0.000391704 1 
22693 1 0.438176 5.95201 -13.5044 0.000556491 1 
25081 1 0.632985 0.885403 -7.94672 0.00274375 1 
25082 1 6.81488 0.285065 -12.2193 0.000727766 1 
25083 1 -168.707 38.1256 -11.157 0.000996879 1 
25084 1 5.86429 1.87166 -10.0554 0.0012475 1 
25085 1 3.25257 1.37743 -9.00247 0.00140952 1 
25086 1 3.5056 2.53647 -11.5817 0.000887373 1 
25087 1 0.889354 2.04858 -10.5113 0.0013409 1 
25088 1 2.54584 4.11992 -9.4236 0.00136485 1 
25089 1 14.3341 0.609529 -12.8272 0.000401745 1 
25090 1 11.7516 0.119947 -11.7437 0.000514864 1 
25091 1 11.9982 1.26747 -14.3655 0.000264219 1 
25092 1 9.40988 0.777038 -13.2871 0.000434474 1 
25093 1 11.0548 2.85919 -12.1815 0.000451745 1 
25094 1 8.46447 2.36616 -11.1122 0.000819578 1 
25095 1 8.71059 3.51746 -13.7214 0.000383358 1 
25096 1 6.11272 3.0266 -12.6496 0.000630003 1 
25097 1 7.76339 5.10464 -11.548 0.000713669 1 
25098 1 5.16011 4.61122 -10.4846 0.00103762 1 
25099 1 5.40987 5.76735 -13.0797 0.000538455 1 
25100 1 2.80015 5.27933 -12.0048 0.000785616 1 
25101 1 4.45635 7.35068 -10.9149 0.000939781 1 
25102 1 1.83956 6.86244 -9.84426 0.00140949 1 
25103 1 2.09575 8.02211 -12.4277 0.000698616 1 
25104 1 1.13569 9.60649 -10.2651 0.00145925 1 
25107 1 16.9158 1.09704 -13.9269 0.00033177 1 
25110 1 16.2244 3.83839 -14.3658 0.000259298 1 
25111 1 13.6402 3.34971 -13.2667 0.000335372 1 
25113 1 11.3017 4.00783 -14.8021 0.000228405 1 
25114 1 12.9454 6.08974 -13.7073 0.000245631 1 
25115 1 10.357 5.59784 -12.6209 0.000399563 1 
25117 1 8.01062 6.25745 -14.1563 0.00033505 1 
25118 1 9.65928 8.33649 -13.0615 0.000339755 1 
25119 1 7.06243 7.84311 -11.985 0.000601079 1 
25120 1 7.31087 8.99771 -14.592 0.000290855 1 
25121 1 4.70761 8.50821 -13.5105 0.000469506 1 
25122 1 6.36244 10.5825 -12.4232 0.00052906 1 
25123 1 3.75432 10.0913 -11.3467 0.000911545 1 
25124 1 4.00678 11.2501 -13.9424 0.000414757 1 
25125 1 1.39386 10.7653 -12.8521 0.000608648 1 
25126 1 3.05431 12.8342 -11.7804 0.00088272 1 
25127 1 0.435551 12.3514 -10.6884 0.00138451 1 
25128 1 0.69472 13.5098 -13.2792 0.000509498 1 
25142 1 15.532 6.57986 -14.8055 0.000182156 1 
25146 1 12.2505 8.82936 -14.1485 0.000204333 1 
25149 1 11.5556 11.5693 -14.5901 0.000176414 1 
25150 1 8.96187 11.0757 -13.503 0.000300461 1 
25153 1 8.26468 13.8165 -13.945 0.000276056 1 
25154 1 5.66341 13.3238 -12.8625 0.000472917 1 
25156 1 3.30735 13.9938 -14.3757 0.000368471 1 
25157 1 4.96465 16.0681 -13.3022 0.000422715 1 
25158 1 2.35519 15.5802 -12.2156 0.000781296 1 
25159 1 2.60855 16.7399 -14.8094 0.000315573 1 
25160 1 1.6561 18.3294 -12.6496 0.000639787 1 
25190 1 7.56729 16.5599 -14.3867 0.000246313 1 
25193 1 6.86935 19.3056 -14.8266 0.000228256 1 
25194 1 4.26555 18.8154 -13.7403 0.000391832 1 
25197 1 3.56565 21.5648 -14.1749 0.000357366 1 
25198 1 0.956167 21.0812 -13.0799 0.000508243 1 
25244 1 2.86466 24.3152 -14.6049 0.000310011 1 
27604 1 2.99011 0.212722 -6.43113 0.00205866 1 
27606 1 1.99735 1.77766 -4.28482 0.00663647 1 
27607 1 10.5536 0.564926 -6.93577 0.00382967 1 
27608 1 7.95571 0.0546781 -5.90714 0.00549621 1 
27609 1 8.21515 1.21371 -8.50595 0.00191029 1 
27610 1 5.6093 0.713569 -7.46989 0.00276629 1 
27611 1 7.25515 2.79305 -6.34075 0.00629374 1 
27612 1 4.63304 2.28523 -5.31917 0.00558649 1 
27613 1 4.90404 3.45144 -7.89619 0.00200934 1 
27614 1 2.28224 2.95517 -6.85019 0.00195414 1 
27615 1 3.92735 5.02049 -5.74103 0.00471288 1 
27616 1 1.29675 4.52436 -4.69506 0.00767992 1 
27617 1 1.57663 5.69571 -7.26908 0.00239571 1 
27618 1 0.597997 7.26123 -5.1223 0.0110672 1 
27619 1 -156.253 38.2852 -11.2891 0.000569838 1 
27620 1 15.7232 1.55051 -9.09136 0.00120056 1 
27621 1 13.142 1.05934 -7.99695 0.00364518 1 
27622 1 13.3914 2.20388 -10.635 0.000793561 1 
27623 1 10.8069 1.71187 -9.55849 0.00107668 1 
27624 1 12.4444 3.79933 -8.44804 0.00100742 1 
27625 1 9.85259 3.29817 -7.37205 0.00420714 1 
27626 1 10.1083 4.44821 -9.99935 0.000993999 1 
27627 1 7.51336 3.95016 -8.94203 0.0018286 1 
27628 1 9.15611 6.0325 -7.82247 0.00251975 1 
27629 1 6.55191 5.52476 -6.78029 0.00471501 1 
27630 1 6.81131 6.6866 -9.38004 0.00136152 1 
27631 1 4.19956 6.18866 -8.32491 0.00160406 1 
27632 1 5.85017 8.25995 -7.21987 0.00284775 1 
27633 1 3.2287 7.75414 -6.17005 0.00290848 1 
27634 1 3.49786 8.9273 -8.75649 0.00183829 1 
27635 1 0.873517 8.4403 -7.68917 0.00371084 1 
27636 1 2.53893 10.4928 -6.60698 0.00720585 1 
27637 1 24.1522 0.261655 -12.0281 0.00109228 1 
27638 1 21.8273 0.922522 -13.5272 0.000512216 1 
27639 1 19.2433 0.437203 -12.4016 0.000754769 1 
27640 1 20.8837 2.52018 -11.3272 0.000719978 1 
27641 1 18.3028 2.03517 -10.2016 0.0012336 1 
27642 1 18.5554 3.17966 -12.8423 0.000469038 1 
27643 1 15.9732 2.6932 -11.7317 0.000518677 1 
27644 1 17.6135 4.78036 -10.6495 0.000617437 1 
27645 1 15.03 4.29382 -9.54074 0.000729108 1 
27646 1 15.2809 5.43468 -12.1752 0.000341624 1 
27647 1 12.696 4.94356 -11.0792 0.000467094 1 
27648 1 14.3369 7.03288 -9.98501 0.000735876 1 
27649 1 11.7493 6.5371 -8.89411 0.000804847 1 
27650 1 12.001 7.68152 -11.5233 0.000395622 1 
27651 1 9.41017 7.18493 -10.4433 0.000768938 1 
27652 1 11.0544 9.27183 -9.3424 0.000760908 1 
27653 1 8.45788 8.76671 -8.27109 0.00182573 1 
27654 1 8.71238 9.92157 -10.8879 0.00063548 1 
27655 1 6.11073 9.4238 -9.81962 0.00111054 1 
27656 1 7.7627 11.5005 -8.71958 0.00161289 1 
27657 1 5.15601 10.9952 -7.66018 0.00247895 1 
27658 1 5.41243 12.1627 -10.2609 0.00101633 1 
27659 1 2.79958 11.6695 -9.19085 0.00235453 1 
27660 1 4.46114 13.7379 -8.10833 0.00238727 1 
27661 1 1.84582 13.2474 -7.05135 0.00872859 1 
27662 1 2.10108 14.4172 -9.62803 0.00224873 1 
27663 1 1.14766 16.0036 -7.48937 0.00586518 1 
27664 1 29.3564 1.2243 -14.3007 0.00044918 1 
27665 1 26.7497 0.744852 -13.1699 0.000690901 1 
27667 1 24.4184 1.40732 -14.6574 0.000400955 1 
27668 1 26.0633 3.48796 -13.5933 0.000397643 1 
27669 1 23.4694 3.00451 -12.4594 0.000630339 1 
27671 1 21.1407 3.66554 -13.9628 0.000311782 1 
27672 1 22.7848 5.74972 -12.8952 0.000223702 1 
27673 1 20.1977 5.26594 -11.7701 0.000318564 1 
27674 1 20.4524 6.4096 -14.3998 0.00017659 1 
27675 1 17.8656 5.92283 -13.2835 0.000276668 1 
27676 1 19.5096 8.01014 -12.2089 0.000220788 1 
27677 1 16.9233 7.52285 -11.0926 0.000382671 1 
27678 1 17.1752 8.66488 -13.7234 0.000188461 1 
27679 1 14.5884 8.17449 -12.6178 0.000294109 1 
27680 1 16.2335 10.2621 -11.5348 0.000272204 1 
27681 1 13.6453 9.76835 -10.4306 0.000740754 1 
27682 1 13.8962 10.9133 -13.0609 0.000256802 1 
27683 1 11.3063 10.4187 -11.9685 0.000347088 1 
27684 1 12.9537 12.5038 -10.8801 0.000469858 1 
27685 1 10.36 12.0045 -9.79178 0.000819853 1 
27686 1 10.6114 13.1567 -12.4146 0.000325329 1 
27687 1 8.01532 12.6594 -11.3337 0.00057938 1 
27688 1 9.66519 14.7403 -10.2447 0.000876886 1 
27689 1 7.06629 14.2396 -9.17288 0.00107861 1 
27690 1 7.31785 15.4009 -11.7805 0.00045743 1 
27691 1 4.7139 14.9062 -10.7043 0.000869323 1 
27692 1 6.36769 16.9831 -9.62291 0.000601493 1 
27693 1 3.76326 16.4884 -8.55623 0.00193394 1 
27694 1 4.01473 17.6534 -11.1467 0.000819282 1 
27695 1 1.40242 17.1674 -10.0642 0.0017679 1 
27696 1 3.06372 19.238 -8.99896 0.00206255 1 
27697 1 0.451113 18.7564 -7.92185 0.00449281 1 
27698 1 0.702916 19.9209 -10.4963 0.00142726 1 
27707 1 28.6654 3.9681 -14.7212 0.000284354 1 
27711 1 25.3768 6.23209 -14.0215 0.000209094 1 
27714 1 24.6882 8.97729 -14.4511 0.000161755 1 
27715 1 22.0974 8.49468 -13.3292 0.000159598 1 
27717 1 19.7628 9.15326 -14.8359 0.00012862 1 
27718 1 21.4081 11.2392 -13.7624 0.000147521 1 
27719 1 18.8206 10.7523 -12.6463 0.000204608 1 
27721 1 16.4843 11.406 -14.1631 0.000140236 1 
27722 1 18.131 13.4935 -13.0836 0.000213829 1 
27723 1 15.5438 13.0005 -11.9785 0.000220951 1 
27724 1 15.793 14.1474 -14.6031 0.000111794 1 
27725 1 13.2035 13.6529 -13.5052 0.000192783 1 
27726 1 14.8521 15.7406 -12.4231 0.000185168 1 
27727 1 12.2606 15.2418 -11.3306 0.000333078 1 
27728 1 12.5098 16.3943 -13.9492 0.00016064 1 
27729 1 9.91591 15.8974 -12.8613 0.000295588 1 
27730 1 11.5662 17.9832 -11.7795 0.000273816 1 
27731 1 8.9687 17.4822 -10.6982 0.000474492 1 
27732 1 9.21949 18.6412 -13.3065 0.000241593 1 
27733 1 6.61953 18.1457 -12.2253 0.000365914 1 
27734 1 8.27097 20.2276 -11.1462 0.000360781 1 
27735 1 5.66847 19.7303 -10.0703 0.000561695 1 
27736 1 5.92055 20.8933 -12.6667 0.000362111 1 
27737 1 3.31458 20.4036 -11.5852 0.000804045 1 
27738 1 4.96871 22.4805 -10.5127 0.000616384 1 
27739 1 2.36203 21.993 -9.43735 0.00212905 1 
27740 1 2.61293 23.1559 -12.0179 0.000741909 1 
27741 1 1.65823 24.7478 -9.86406 0.00190471 1 
27763 1 23.9978 11.7234 -14.8807 0.000150008 1 
27767 1 20.7177 13.9835 -14.195 0.000146473 1 
27770 1 20.0261 16.7275 -14.6267 0.00015017 1 
27771 1 17.4401 16.2359 -13.522 0.000141679 1 
27774 1 16.7476 18.9783 -13.9581 0.000147964 1 
27775 1 14.1591 18.4821 -12.8656 0.000197595 1 
27777 1 11.8152 19.1376 -14.3914 0.000159111 1 
27778 1 13.4647 21.2248 -13.3055 0.000220348 1 
27779 1 10.8703 20.7266 -12.2241 0.000275954 1 
27780 1 11.1196 21.882 -14.8309 0.000177 1 
27781 1 8.52221 21.387 -13.748 0.00023995 1 
27782 1 10.1739 23.471 -12.6646 0.000311194 1 
27783 1 7.57288 22.9745 -11.5884 0.000346583 1 
27784 1 7.82416 24.1338 -14.1857 0.000253406 1 
27785 1 5.22065 23.6425 -13.1034 0.000373053 1 
27786 1 6.87425 25.7217 -12.026 0.000362905 1 
27787 1 4.26787 25.2307 -10.9475 0.000685266 1 
27788 1 4.51957 26.3919 -13.535 0.000374017 1 
27789 1 1.90985 25.908 -12.4435 0.000613803 1 
27790 1 3.56534 27.9807 -11.3773 0.000733488 1 
27791 1 0.952493 27.5004 -10.2821 0.00134786 1 
27792 1 1.20562 28.6589 -12.8642 0.000498126 1 
27832 1 16.054 21.7206 -14.3926 0.0001635 1 
27835 1 15.3598 24.4629 -14.8264 0.000174772 1 
27836 1 12.7695 23.9678 -13.743 0.000244439 1 
27839 1 12.0741 26.7113 -14.1794 0.000278935 1 
27840 1 9.47702 26.2161 -13.1026 0.00036021 1 
27842 1 7.1252 26.8811 -14.62 0.00027283 1 
27843 1 8.77949 28.9621 -13.5386 0.000413465 1 
27844 1 6.17473 28.4694 -12.4606 0.00045707 1 
27846 1 3.8172 29.1413 -13.9627 0.000366695 1 
27847 1 5.47332 31.218 -12.892 0.000569507 1 
27848 1 2.86071 30.731 -11.8025 0.000664398 1 
27849 1 3.11362 31.8907 -14.3867 0.000366881 1 
27850 1 0.500489 31.4091 -13.2817 0.000476722 1 
27851 1 2.15441 33.4811 -12.2237 0.000723031 1 
27905 1 11.3781 29.4558 -14.6149 0.000319666 1 
27909 1 8.08044 31.709 -13.972 0.000452192 1 
27912 1 7.37938 34.4562 -14.4021 0.000465821 1 
27913 1 4.76975 33.9671 -13.319 0.000621684 1 
27915 1 2.40926 34.6398 -14.8076 0.000403051 1 
27916 1 4.0648 36.7161 -13.7415 0.000624095 1 
27917 1 1.44751 36.2314 -12.641 0.000960643 1 
27985 1 6.67664 37.203 -14.8285 0.000451554 1 
30249 1 6.62731 0.40123 -1.2122 2.12112 5 
30250 1 -168.952 38.2318 -0.271671 5.58935 5 
30251 1 4.32982 1.11162 -2.7544 0.0309795 1 
30252 1 1.68453 0.616322 -1.70353 0.14856 1 
30253 1 3.23579 2.6377 -0.569845 2.41099 5 
30254 1 0.953881 3.33663 -2.13907 0.0490034 1 
30255 1 -160.04 38.2531 -5.34684 0.0292005 1 
30256 1 11.9032 1.54495 -3.16274 0.158241 1 
30257 1 9.31178 0.928996 -2.09927 2.03011 5 
30258 1 9.58726 2.1318 -4.73918 0.0320697 1 
30259 1 6.9738 1.61782 -3.76338 0.0297334 1 
30260 1 8.58322 3.67098 -2.5987 0.153893 1 
30261 1 5.92286 3.17706 -1.65645 0.141936 1 
30262 1 6.26967 4.36553 -4.18755 0.0219754 1 
30263 1 3.61982 3.82042 -3.17749 0.0306094 1 
30264 1 5.25353 5.90571 -2.05278 3.32886 5 
30265 1 2.57438 5.33179 -1.11745 5.61479 5 
30266 1 2.9271 6.58033 -3.58694 0.0527081 1 
30267 1 0.273901 6.08936 -2.55377 0.0872094 1 
30268 1 1.85959 8.06278 -1.31213 4.86104 5 
30269 1 20.3886 0.234314 -6.01953 0.016191 1 
30270 1 18.0544 0.890974 -7.55043 0.00578222 1 
30271 1 15.478 0.406995 -6.44671 0.00772899 1 
30272 1 17.1183 2.49762 -5.36747 0.0209988 1 
30273 1 14.5302 2.03247 -4.30263 0.03948 1 
30274 1 14.7789 3.16028 -6.9069 0.00337094 1 
30275 1 12.1849 2.65754 -5.81521 0.00703604 1 
30276 1 13.825 4.78018 -4.71265 0.0235149 1 
30277 1 11.2159 4.23871 -3.64441 0.0697992 1 
30278 1 11.4924 5.39143 -6.26685 0.00408816 1 
30279 1 8.88331 4.88016 -5.19286 0.0200694 1 
30280 1 10.5246 6.98531 -4.12294 0.0674999 1 
30281 1 7.87707 6.46211 -3.0074 0.2389 1 
30282 1 8.18988 7.60811 -5.65312 0.0105919 1 
30283 1 5.57474 7.08296 -4.63274 0.0279991 1 
30284 1 7.1893 9.15266 -3.48986 0.13292 1 
30285 1 4.52107 8.58833 -2.47968 5.68348 5 
30286 1 4.87991 9.81034 -5.05918 0.0147495 1 
30287 1 2.24611 9.29803 -4.02094 0.0462086 1 
30288 1 3.9052 11.3338 -2.91697 0.433563 1 
30289 1 1.35518 10.8145 -1.89976 0.815295 1 
30290 1 1.58285 12.0587 -4.49212 0.0381346 1 
30291 1 0.626372 13.6639 -2.44102 0.225059 1 
30292 1 25.5254 1.2045 -8.33624 0.00559049 1 
30293 1 22.9491 0.715117 -7.15836 0.018268 1 
30294 1 23.2082 1.85933 -9.82052 0.0027654 1 
30295 1 20.6311 1.37549 -8.68168 0.00258283 1 
30296 1 22.2803 3.47111 -7.63275 0.00320419 1 
30297 1 19.7026 2.9887 -6.50663 0.00455628 1 
30298 1 19.9462 4.12685 -9.13629 0.000813833 1 
30299 1 17.3642 3.64118 -8.01114 0.00226559 1 
30300 1 19.0145 5.74813 -6.95041 0.00469822 1 
30301 1 16.4286 5.25789 -5.82746 0.00811978 1 
30302 1 16.6727 6.38694 -8.45901 0.00099332 1 
30303 1 14.0837 5.89911 -7.34807 0.00326712 1 
30304 1 15.7305 8.00157 -6.27158 0.00651054 1 
30305 1 13.1253 7.5013 -5.14413 0.0395731 1 
30306 1 13.39 8.6306 -7.79221 0.00340764 1 
30307 1 10.795 8.13278 -6.71612 0.00388459 1 
30308 1 12.4401 10.2321 -5.6063 0.0151844 1 
30309 1 9.81327 9.72371 -4.52686 0.0312795 1 
30310 1 10.1013 10.8575 -7.16105 0.00378977 1 
30311 1 7.49876 10.334 -6.10408 0.00919126 1 
30312 1 9.13766 12.4279 -4.96964 0.0414626 1 
30313 1 6.54199 11.8918 -3.97424 0.0772078 1 
30314 1 6.80896 13.0747 -6.56535 0.00522945 1 
30315 1 4.20074 12.5511 -5.51114 0.0127876 1 
30316 1 5.84187 14.6355 -4.41593 0.0223215 1 
30317 1 3.2322 14.13 -3.42441 0.0678968 1 
30318 1 3.50795 15.3185 -5.97515 0.00910809 1 
30319 1 0.886536 14.8413 -4.9381 0.0307517 1 
30320 1 2.56337 16.8921 -3.81634 0.0497774 1 
30321 1 -138.858 38.2087 -11.345 0.000888286 1 
30322 1 31.7029 0.553338 -12.8228 0.00069603 1 
30323 1 29.0866 0.0794827 -11.698 0.00140397 1 
30324 1 30.7396 2.15205 -10.6387 0.00133746 1 
30325 1 28.1257 1.68382 -9.50013 0.00309822 1 
30326 1 28.398 2.82346 -12.1104 0.000807921 1 
30327 1 25.7964 2.34456 -10.9697 0.00122093 1 
30328 1 27.446 4.42517 -9.91087 0.00142637 1 
30329 1 24.8575 3.95111 -8.76906 0.00159501 1 
30330 1 25.1163 5.08856 -11.3987 0.000460313 1 
30331 1 22.5295 4.60765 -10.2661 0.000529164 1 
30332 1 24.1798 6.69442 -9.20134 0.00096239 1 
30333 1 21.6001 6.22006 -8.07699 0.00138031 1 
30334 1 21.845 7.35393 -10.7034 0.00028159 1 
30335 1 19.2592 6.87282 -9.57939 0.000566066 1 
30336 1 20.9128 8.96515 -8.51241 0.000798543 1 
30337 1 18.3245 8.48684 -7.38853 0.00553587 1 
30338 1 18.5706 9.61417 -10.0173 0.000675146 1 
30339 1 15.9822 9.12534 -8.90178 0.000804138 1 
30340 1 17.6382 11.2107 -7.81422 0.00970339 1 
30341 1 15.0447 10.7295 -6.71309 0.00429636 1 
30342 1 15.2952 11.8587 -9.34823 0.000674463 1 
30343 1 12.7007 11.3605 -8.24784 0.00146208 1 
30344 1 14.3524 13.4572 -7.17082 0.00362802 1 
30345 1 11.7466 12.949 -6.07363 0.00495509 1 
30346 1 12.008 14.0915 -8.70659 0.000936557 1 
30347 1 9.40828 13.5831 -7.61796 0.00443215 1 
30348 1 11.057 15.6787 -6.5491 0.00229984 1 
30349 1 8.44944 15.1619 -5.46077 0.013263 1 
30350 1 8.71357 16.3211 -8.08568 0.00164857 1 
30351 1 6.11208 15.8161 -7.01816 0.0024576 1 
30352 1 7.75013 17.8984 -5.93864 0.00481046 1 
30353 1 5.1492 17.3821 -4.85887 0.0237734 1 
30354 1 5.41143 18.5637 -7.46911 0.00159888 1 
30355 1 2.81307 18.0696 -6.41092 0.00538264 1 
30356 1 4.44707 20.1548 -5.32174 0.0111048 1 
30357 1 1.856 19.6614 -4.28888 0.0225454 1 
30358 1 2.11213 20.8234 -6.86379 0.0083276 1 
30359 1 1.16122 22.41 -4.74851 0.0556945 1 
30360 1 39.2904 0.838244 -13.5162 0.00049912 1 
30361 1 36.6787 0.353972 -12.4354 0.000706086 1 
30363 1 34.3202 1.02905 -13.931 0.000414016 1 
30364 1 35.9784 3.09792 -12.8599 0.000599653 1 
30365 1 33.3593 2.62175 -11.7582 0.00073742 1 
30366 1 33.6222 3.77369 -14.352 0.000300334 1 
30367 1 31.0083 3.298 -13.2377 0.000462655 1 
30368 1 32.6635 5.36688 -12.1771 0.000607466 1 
30369 1 30.0498 4.89585 -11.0508 0.000948141 1 
30370 1 30.3161 6.04247 -13.6586 0.000336132 1 
30371 1 27.7117 5.56647 -12.5312 0.000458552 1 
30372 1 29.3616 7.63999 -11.472 0.000719171 1 
30373 1 26.7649 7.1674 -10.3354 0.000884598 1 
30374 1 27.0242 8.3113 -12.9573 0.000323836 1 
30375 1 24.4319 7.83321 -11.8294 0.000304646 1 
30376 1 26.0797 9.91328 -10.7652 0.000670586 1 
30377 1 23.4955 9.4391 -9.63586 0.00059696 1 
30378 1 23.7441 10.5792 -12.2605 0.000257111 1 
30379 1 21.1574 10.0983 -11.138 0.000249448 1 
30380 1 22.8073 12.186 -10.0683 0.000533596 1 
30381 1 20.224 11.7054 -8.94513 0.000950311 1 
30382 1 20.4685 12.8413 -11.5718 0.000279684 1 
30383 1 17.8832 12.3506 -10.4547 0.000961731 1 
30384 1 19.5372 14.4461 -9.38211 0.000711192 1 
30385 1 16.9524 13.9518 -8.2775 0.00159089 1 
30386 1 17.194 15.0916 -10.9 0.000300857 1 
30387 1 14.6038 14.5942 -9.79973 0.000537163 1 
30388 1 16.2588 16.691 -8.72304 0.00108551 1 
30389 1 13.6606 16.1844 -7.62837 0.00380969 1 
30390 1 13.9113 17.3323 -10.2489 0.000529384 1 
30391 1 11.3145 16.8292 -9.16572 0.00056547 1 
30392 1 12.9653 18.924 -8.08756 0.00164026 1 
30393 1 10.3569 18.4167 -7.01195 0.00130812 1 
30394 1 10.6175 19.5706 -9.61791 0.000492121 1 
30395 1 8.01435 19.0654 -8.54377 0.000743046 1 
30396 1 9.65826 21.1538 -7.46241 0.00146083 1 
30397 1 7.04999 20.6512 -6.39838 0.00288389 1 
30398 1 7.31605 21.8132 -8.99228 0.000528203 1 
30399 1 4.71257 21.3153 -7.92194 0.00138216 1 
30400 1 6.34928 23.3968 -6.83704 0.00181043 1 
30401 1 3.75072 22.8933 -5.76627 0.011093 1 
30402 1 4.01367 24.0655 -8.36073 0.00162939 1 
30403 1 1.4093 23.5852 -7.29531 0.00794447 1 
30404 1 3.05875 25.6495 -6.21153 0.00627607 1 
30405 1 0.456902 25.1706 -5.14694 0.0217191 1 
30406 1 0.702616 26.3379 -7.70884 0.00497223 1 
30409 1 41.8933 1.32573 -14.5956 0.00032938 1 
30413 1 38.5908 3.58075 -13.9486 0.000425637 1 
30416 1 37.8919 6.32494 -14.382 0.000370187 1 
30417 1 35.2799 5.84292 -13.287 0.000495205 1 
30419 1 32.926 6.51904 -14.7764 0.000231836 1 
30420 1 34.5822 8.59017 -13.716 0.000406909 1 
30421 1 31.9693 8.1135 -12.601 0.000527331 1 
30423 1 29.6241 8.78857 -14.0834 0.000271975 1 
30424 1 31.2747 10.863 -13.027 0.00044545 1 
30425 1 28.6721 10.3878 -11.8981 0.000605345 1 
30426 1 28.931 11.5369 -14.5095 0.000249107 1 
30427 1 26.3344 11.0586 -13.3852 0.00028194 1 
30428 1 27.9798 13.1397 -12.3245 0.000534739 1 
30429 1 25.3903 12.6634 -11.1946 0.000603731 1 
30430 1 25.6422 13.8074 -13.8119 0.00028937 1 
30431 1 23.0539 13.326 -12.6904 0.000273798 1 
30432 1 24.6979 15.4141 -11.619 0.000655973 1 
30433 1 22.1173 14.9329 -10.4972 0.000618418 1 
30434 1 22.3622 16.0721 -13.1181 0.000305489 1 
30435 1 19.7786 15.5845 -12.0055 0.000291141 1 
30436 1 21.4245 17.677 -10.9217 0.000647041 1 
30437 1 18.8454 17.1862 -9.81537 0.000655568 1 
30438 1 19.0864 18.3268 -12.4369 0.000289905 1 
30439 1 16.5018 17.8324 -11.3398 0.000290673 1 
30440 1 18.1501 19.9254 -10.2464 0.000576949 1 
30441 1 15.563 19.4279 -9.16179 0.000834077 1 
30442 1 15.8075 20.5729 -11.7764 0.000324821 1 
30443 1 13.2163 20.0734 -10.6947 0.000477761 1 
30444 1 14.865 22.1649 -9.59778 0.000735525 1 
30445 1 12.2662 21.6629 -8.53088 0.00121268 1 
30446 1 12.5202 22.8147 -11.135 0.000457027 1 
30447 1 9.92043 22.3135 -10.0629 0.000522837 1 
30448 1 11.5688 24.4012 -8.97029 0.000869738 1 
30449 1 8.96076 23.8969 -7.90853 0.00115598 1 
30450 1 9.22386 25.0575 -10.5043 0.000578808 1 
30451 1 6.61782 24.56 -9.43261 0.000442507 1 
30452 1 8.26734 26.6405 -8.35111 0.00137585 1 
30453 1 5.65685 26.1398 -7.27412 0.00240739 1 
30454 1 5.92079 27.3064 -9.87062 0.000615893 1 
30455 1 3.31316 26.8162 -8.79506 0.00189701 1 
30456 1 4.96497 28.8867 -7.72175 0.00173551 1 
30457 1 2.35892 28.3971 -6.64622 0.00651367 1 
30458 1 2.60857 29.567 -9.22302 0.00153353 1 
30459 1 1.65174 31.1473 -7.06823 0.00396981 1 
30477 1 37.1931 9.07143 -14.8157 0.000315285 1 
30481 1 33.8841 11.34 -14.1444 0.00032592 1 
30484 1 33.1852 14.0913 -14.57 0.000262887 1 
30485 1 30.5789 13.615 -13.4518 0.000378546 1 
30487 1 28.2364 14.2867 -14.9343 0.000254011 1 
30488 1 29.8813 16.3671 -13.8722 0.00040972 1 
30489 1 27.2849 15.8917 -12.7458 0.000603476 1 
30491 1 24.9485 16.5555 -14.2359 0.000315708 1 
30492 1 26.5887 18.6404 -13.1627 0.000634131 1 
30493 1 24.0036 18.1611 -12.0383 0.000706805 1 
30494 1 24.2539 19.3016 -14.6575 0.000324227 1 
30495 1 21.669 18.8164 -13.5435 0.000308744 1 
30496 1 23.3081 20.9039 -12.4559 0.000616398 1 
30497 1 20.7295 20.4176 -11.3443 0.000567284 1 
30498 1 20.975 21.5588 -13.9681 0.000273457 1 
30499 1 18.3926 21.068 -12.8671 0.000266406 1 
30500 1 20.0333 23.1566 -11.7684 0.000436385 1 
30501 1 17.4528 22.6634 -10.6763 0.00048931 1 
30502 1 17.6981 23.8086 -13.2974 0.000237086 1 
30503 1 15.1123 23.3133 -12.2115 0.000321361 1 
30504 1 16.7561 25.4016 -11.108 0.000435567 1 
30505 1 14.1678 24.903 -10.0344 0.000687715 1 
30506 1 14.4174 26.0543 -12.6471 0.000333097 1 
30507 1 11.8244 25.5566 -11.5737 0.00046525 1 
30508 1 13.4729 27.6431 -10.4727 0.000651091 1 
30509 1 10.8746 27.1419 -9.41114 0.000933082 1 
30510 1 11.1293 28.3 -12.0122 0.000538325 1 
30511 1 8.52786 27.8027 -10.9439 0.000661404 1 
30512 1 10.1818 29.8859 -9.85351 0.00110053 1 
30513 1 7.57483 29.3867 -8.79397 0.00117001 1 
30514 1 7.83072 30.5495 -11.3817 0.000727391 1 
30515 1 5.22154 30.0548 -10.3079 0.000957688 1 
30516 1 6.87877 32.135 -9.23395 0.00110519 1 
30517 1 4.26615 31.637 -8.16535 0.00307949 1 
30518 1 4.5184 32.8052 -10.7397 0.00126417 1 
30519 1 1.90088 32.3178 -9.64491 0.0011813 1 
30520 1 3.55995 34.3898 -8.59592 0.00342822 1 
30521 1 0.939605 33.8987 -7.48855 0.00298942 1 
30522 1 1.1913 35.068 -10.0636 0.00186972 1 
30553 1 32.4852 16.8427 -14.992 0.000250907 1 
30557 1 29.1828 19.1169 -14.2888 0.000446088 1 
30560 1 28.4841 21.8642 -14.7035 0.000453045 1 
30561 1 25.8919 21.3856 -13.5776 0.000592875 1 
30564 1 25.1954 24.1287 -13.9937 0.000523182 1 
30565 1 22.6123 23.6447 -12.8752 0.000482326 1 
30567 1 20.2809 24.3 -14.3939 0.00022478 1 
30568 1 21.9175 26.3851 -13.2979 0.000362386 1 
30569 1 19.3376 25.8956 -12.1958 0.000338412 1 
30570 1 19.5873 27.0411 -14.8218 0.000195899 1 
30571 1 17.0039 26.5494 -13.7291 0.000232128 1 
30572 1 18.6438 28.6357 -12.6264 0.000320451 1 
30573 1 16.0616 28.1413 -11.5427 0.000438448 1 
30574 1 16.3104 29.291 -14.1625 0.000248407 1 
30575 1 13.723 28.7966 -13.0834 0.000369138 1 
30576 1 15.3689 30.8829 -11.9796 0.000469709 1 
30577 1 12.7797 30.3855 -10.9123 0.000688363 1 
30578 1 13.0285 31.5401 -13.5197 0.000409397 1 
30579 1 10.4336 31.045 -12.4499 0.000610875 1 
30580 1 12.0857 33.1299 -11.3512 0.000764137 1 
30581 1 9.48678 32.6324 -10.2934 0.00114921 1 
30582 1 9.73561 33.791 -12.8849 0.000631256 1 
30583 1 7.13066 33.2975 -11.8155 0.000791845 1 
30584 1 8.7872 35.3797 -10.7282 0.00107146 1 
30585 1 6.1767 34.884 -9.66731 0.00129941 1 
30586 1 6.42734 36.0457 -12.2442 0.000832573 1 
30587 1 3.81196 35.5559 -11.1643 0.00127071 1 
30588 1 5.47034 37.6336 -10.093 0.00149315 1 
30589 1 2.84925 37.1427 -9.01671 0.00243598 1 
30590 1 0.481595 37.8212 -10.4783 0.00349342 1 
30639 1 24.5003 26.8707 -14.4125 0.000424686 1 
30642 1 23.8071 29.6122 -14.8354 0.000334182 1 
30643 1 21.2242 29.1257 -13.7245 0.000314431 1 
30646 1 20.5326 31.8665 -14.1539 0.000299679 1 
30647 1 17.9518 31.3767 -13.0596 0.000326391 1 
30649 1 15.617 32.0334 -14.5969 0.000265985 1 
30650 1 17.2599 34.1182 -13.4943 0.000323574 1 
30651 1 14.6759 33.6257 -12.4167 0.000500269 1 
30653 1 12.3325 34.2842 -13.9548 0.000425348 1 
30655 1 11.3887 35.8747 -11.7872 0.000781852 1 
30657 1 9.03494 36.5369 -13.316 0.000607591 1 
30719 1 19.8416 34.6074 -14.5862 0.000266081 1 
33012 1 14.5303 0.962584 0.827486 7.79454 5 
33013 1 14.2338 0.890296 -1.77405 5.40302 5 
33014 1 11.6503 0.240862 -0.576925 8.38604 5 
33015 1 10.8268 3.11212 -0.891116 6.07392 5 
33016 1 8.12779 2.32421 -0.0384946 10.3547 5 
33017 1 7.62045 5.15599 -0.459697 6.09003 5 
33018 1 21.8284 1.2608 -2.33653 0.330396 1 
33019 1 19.3165 0.761316 -1.29993 4.79629 5 
33020 1 19.4764 1.85833 -3.87369 0.0391831 1 
33021 1 16.8786 1.39266 -2.69123 0.376241 1 
33022 1 18.5018 3.46162 -1.72678 3.37725 5 
33023 1 15.7726 3.07656 -0.527456 11.6473 5 
33024 1 16.168 4.13304 -3.20688 0.149552 1 
33025 1 13.5367 3.64221 -2.13597 6.23666 5 
33026 1 15.4058 5.90323 -1.0947 6.98644 5 
33027 1 12.9504 4.87344 0.22795 10.7135 5 
33028 1 12.8706 6.36259 -2.46731 0.770419 1 
33029 1 10.2095 5.79495 -1.61914 5.69909 5 
33030 1 11.5914 7.87995 -0.320043 10.1398 5 
33031 1 9.45097 8.54716 -1.9434 6.19627 5 
33032 1 6.61772 7.968 -0.707168 8.81255 5 
33033 1 6.14827 10.6495 -1.43873 6.20148 5 
33034 1 3.733 9.58425 -0.0313352 10.0606 5 
33035 1 2.93485 12.8385 -0.850566 6.23929 5 
33036 1 -142.715 38.1875 -5.49062 0.0204867 1 
33037 1 27.8511 0.547658 -6.90007 0.0138612 1 
33038 1 25.2519 0.0648739 -5.688 0.0376359 1 
33039 1 26.9092 2.15712 -4.64412 0.0381964 1 
33040 1 24.3587 1.73303 -3.50885 0.179394 1 
33041 1 24.6023 2.82803 -6.13181 0.00912251 1 
33042 1 22.0371 2.35569 -4.991 0.01419 1 
33043 1 23.6936 4.47541 -3.90385 0.0331459 1 
33044 1 21.1223 4.00928 -2.82518 0.0451378 1 
33045 1 21.3694 5.09888 -5.45489 0.0124846 1 
33046 1 18.7899 4.59414 -4.35573 0.0497808 1 
33047 1 20.4887 6.74205 -3.30242 0.099177 1 
33048 1 17.921 6.20051 -2.31217 3.08723 5 
33049 1 18.0857 7.39093 -4.76814 0.156315 1 
33050 1 15.4774 6.90335 -3.66889 0.247965 1 
33051 1 17.0681 8.91713 -2.32311 4.37554 5 
33052 1 14.316 8.52601 -1.50795 7.64048 5 
33053 1 14.8023 9.61224 -4.08464 0.172354 1 
33054 1 12.091 9.10385 -2.99577 0.242465 1 
33055 1 13.8755 11.217 -2.0154 2.97859 5 
33056 1 11.3437 10.757 -0.792929 5.99327 5 
33057 1 11.4663 11.8422 -3.4236 0.110347 1 
33058 1 8.84197 11.2572 -2.28049 0.656086 1 
33059 1 10.3209 13.4403 -1.31192 6.95934 5 
33060 1 7.54737 12.6442 -0.167577 9.57716 5 
33061 1 8.11452 14.008 -2.8385 0.231165 1 
33062 1 5.51968 13.4207 -1.83846 6.64394 5 
33063 1 7.25301 15.5577 -0.576822 5.6293 5 
33064 1 4.90339 16.1239 -2.24484 0.353901 1 
33065 1 2.27234 15.6269 -1.26201 0.583588 1 
33066 1 3.88284 17.5877 -0.248173 8.64905 5 
33067 1 1.58218 18.5305 -1.737 0.44271 1 
33068 1 35.4553 0.774744 -7.69792 0.0036375 1 
33069 1 32.825 0.304961 -6.60566 0.00360475 1 
33070 1 33.0933 1.46821 -9.17426 0.00164766 1 
33071 1 30.4682 1.00739 -8.05053 0.00395905 1 
33072 1 32.1251 3.06591 -6.99577 0.00523742 1 
33073 1 29.5044 2.61738 -5.83765 0.0133906 1 
33074 1 29.7783 3.75492 -8.44145 0.00340372 1 
33075 1 27.1775 3.29196 -7.28097 0.00611885 1 
33076 1 28.8275 5.36062 -6.21753 0.00908742 1 
33077 1 26.2528 4.91459 -5.04541 0.0101398 1 
33078 1 26.5073 6.03174 -7.70059 0.00291764 1 
33079 1 23.9359 5.56855 -6.56252 0.00451775 1 
33080 1 25.589 7.64727 -5.47877 0.00779645 1 
33081 1 23.0397 7.20221 -4.35534 0.0193058 1 
33082 1 23.2584 8.30832 -7.00388 0.00274837 1 
33083 1 20.6842 7.84523 -5.89546 0.0078105 1 
33084 1 22.3432 9.93326 -4.81539 0.0155484 1 
33085 1 19.7395 9.4618 -3.69942 0.1601 1 
33086 1 19.986 10.5811 -6.31647 0.00607193 1 
33087 1 17.392 10.0782 -5.1473 0.123436 1 
33088 1 19.0918 12.2034 -4.12452 0.0207989 1 
33089 1 16.5179 11.7215 -3.05349 0.248758 1 
33090 1 16.7216 12.8209 -5.66213 0.0178463 1 
33091 1 14.0979 12.3491 -4.54052 0.0488424 1 
33092 1 15.78 14.4602 -3.56535 0.274982 1 
33093 1 13.086 13.9176 -2.26872 2.62944 5 
33094 1 13.3986 15.046 -4.98684 0.0552794 1 
33095 1 10.7939 14.5386 -3.93162 0.0876341 1 
33096 1 12.4499 16.6638 -2.89079 0.094919 1 
33097 1 9.79842 16.1227 -1.87873 3.43905 5 
33098 1 10.0895 17.2767 -4.4094 0.015971 1 
33099 1 7.47108 16.7446 -3.31563 0.0563589 1 
33100 1 9.08106 18.8414 -2.21067 1.80436 5 
33101 1 6.43405 18.3123 -1.26158 7.44184 5 
33102 1 6.78312 19.4833 -3.82594 0.0470111 1 
33103 1 4.16655 18.9724 -2.74391 0.150556 1 
33104 1 5.7677 21.0278 -1.73688 5.36707 5 
33105 1 3.21935 20.4336 -0.426202 5.6022 5 
33106 1 3.44784 21.7386 -3.12555 0.213907 1 
33107 1 0.865125 21.2345 -2.20326 6.07346 5 
33108 1 2.20404 23.2826 -0.963697 10.5394 5 
33109 1 41.6441 0.171337 -11.9885 0.000683676 1 
33110 1 40.6929 1.75381 -9.82458 0.00116332 1 
33111 1 38.0794 1.26011 -8.76411 0.0018281 1 
33112 1 38.3377 2.42283 -11.3533 0.000922425 1 
33113 1 35.7193 1.93997 -10.2735 0.00143109 1 
33114 1 37.3834 4.00281 -9.19805 0.00230661 1 
33115 1 34.7584 3.52447 -8.11582 0.00375464 1 
33116 1 35.0207 4.68547 -10.6966 0.00134495 1 
33117 1 32.3962 4.2163 -9.58099 0.0019513 1 
33118 1 34.0621 6.27287 -8.53812 0.00406111 1 
33119 1 31.4319 5.8153 -7.3897 0.0102103 1 
33120 1 31.7042 6.96158 -9.9979 0.00200717 1 
33121 1 29.0963 6.49552 -8.85242 0.00221663 1 
33122 1 30.7471 8.55672 -7.80611 0.0110545 1 
33123 1 28.1567 8.09393 -6.63609 0.00732857 1 
33124 1 28.4136 9.23882 -9.278 0.00193323 1 
33125 1 25.8301 8.77253 -8.13383 0.00228871 1 
33126 1 27.4769 10.8457 -7.08614 0.00362104 1 
33127 1 24.9093 10.3861 -5.92907 0.00920201 1 
33128 1 25.1451 11.5213 -8.57104 0.00187666 1 
33129 1 22.5704 11.0521 -7.44349 0.0016774 1 
33130 1 24.2314 13.14 -6.37697 0.00512569 1 
33131 1 21.6714 12.6728 -5.25613 0.00459908 1 
33132 1 21.8836 13.7998 -7.87508 0.00128066 1 
33133 1 19.3063 13.3163 -6.75576 0.00273244 1 
33134 1 20.9722 15.422 -5.68248 0.00724553 1 
33135 1 18.3949 14.9175 -4.55749 0.0462918 1 
33136 1 18.6137 16.0493 -7.19305 0.00310404 1 