ITEM: TIMESTEP
0
ITEM: NUMBER OF ATOMS
3618
ITEM: BOX BOUNDS xy xz yz pp pp ss
-1.7600149031000001e+01 4.4733712120000000e+01 -1.7600149031000001e+01
0.0000000000000000e+00 4.5301156210999999e+01 0.0000000000000000e+00
-8.9322325570083464e+01 8.7744713081801834e+01 0.0000000000000000e+00
ITEM: ATOMS id type x y z c_csym c_cna 
2326 1 1.40214 44.8548 -14.9652 0.000177634 1 
2877 1 0.857711 33.7769 -14.7635 0.000119363 1 
2958 1 2.68607 37.3844 -14.9025 0.000151371 1 
2959 1 1.03642 36.0185 -12.993 0.000295616 1 
2960 1 1.21362 38.258 -11.2208 0.000757798 1 
3043 1 2.8652 39.6261 -13.136 0.000321996 1 
3044 1 2.13414 42.241 -14.0509 0.000192363 1 
3045 1 0.482729 40.8743 -12.1398 0.000343633 1 
3046 1 3.04698 41.8672 -11.3713 0.000581004 1 
3047 1 1.39483 40.4974 -9.45269 0.00171365 1 
3048 1 0.663752 43.1172 -10.3708 0.00100368 1 
3049 1 1.58597 42.7454 -7.69794 0.0079538 1 
3131 1 4.70281 43.2384 -13.2768 0.000286677 1 
3132 1 2.31478 44.4826 -12.2853 0.000584271 1 
3133 1 22.4862 0.179905 -11.5189 0.00112557 1 
3134 1 3.23144 44.1088 -9.61427 0.00230103 1 
3135 1 18.4494 0.0578644 -8.59443 0.0030542 1 
3136 1 1.80571 44.9973 -5.91343 0.0205138 1 
3609 1 0.507152 24.9525 -12.7788 0.000977016 1 
3690 1 2.14907 26.3115 -14.6834 0.000320457 1 
3692 1 2.3307 28.5516 -12.9117 0.000460047 1 
3693 1 0.689779 27.1938 -11.0036 0.00133223 1 
3694 1 0.867213 29.4358 -9.23269 0.00188711 1 
3775 1 3.97539 29.9149 -14.8241 0.000166287 1 
3777 1 1.59357 31.1637 -13.8406 0.000187528 1 
3778 1 4.15512 32.1559 -13.0603 0.000292708 1 
3779 1 2.5096 30.7929 -11.1451 0.000645798 1 
3780 1 1.77246 33.4052 -12.0711 0.000392244 1 
3781 1 2.68892 33.0355 -9.37537 0.00185805 1 
3782 1 1.05118 31.6834 -7.45757 0.00347111 1 
3783 1 1.23552 33.9233 -5.65775 0.0396291 1 
3863 1 5.80576 33.524 -14.9688 0.000134167 1 
3865 1 3.41999 34.7699 -13.9835 0.000210687 1 
3866 1 5.98614 35.766 -13.2088 0.000350623 1 
3867 1 4.33292 34.397 -11.2999 0.000812632 1 
3868 1 3.59706 37.0109 -12.2202 0.000564719 1 
3869 1 1.94732 35.6445 -10.3008 0.00115412 1 
3870 1 4.50673 36.6355 -9.54406 0.00222366 1 
3871 1 2.85889 35.2743 -7.60935 0.0079053 1 
3872 1 2.12136 37.8784 -8.52817 0.00396632 1 
3873 1 0.487588 36.5095 -6.55976 0.0398635 1 
3874 1 3.02471 37.4964 -5.82917 0.044383 1 
3875 1 1.38739 36.1029 -3.7692 0.598697 5 
3876 1 0.672412 38.7162 -4.76864 0.263305 1 
3877 1 1.72039 38.2549 -1.92574 5.27287 5 
3959 1 5.25234 38.381 -14.1263 0.000285989 1 
3960 1 7.82428 39.3811 -13.3482 0.000463068 1 
3961 1 6.16468 38.0074 -11.4539 0.00107192 1 
3962 1 5.43331 40.6238 -12.3656 0.000551825 1 
3963 1 3.77448 39.2503 -10.4581 0.00131091 1 
3964 1 6.345 40.2493 -9.70128 0.00365733 1 
3965 1 4.68099 38.8673 -7.78999 0.00891871 1 
3966 1 3.96567 41.4896 -8.69856 0.00345091 1 
3967 1 2.31267 40.1123 -6.76973 0.0219158 1 
3968 1 4.91027 41.1035 -6.03864 0.0238714 1 
3969 1 3.30368 39.7094 -4.11189 0.125942 1 
3970 1 2.55543 42.3731 -5.06289 0.0627335 1 
3971 1 1.03919 40.9388 -3.19541 0.490499 1 
3972 1 3.64498 41.9597 -2.48039 5.22691 5 
3974 1 1.35163 43.0696 -1.53241 9.54643 5 
4056 1 7.09158 41.9965 -14.2616 0.000343118 1 
4057 1 9.66716 43.0013 -13.4739 0.000566866 1 
4058 1 8.00813 41.6273 -11.5937 0.00198968 1 
4059 1 7.27709 44.2421 -12.4999 0.000598182 1 
4060 1 5.62074 42.8649 -10.6032 0.00137765 1 
4061 1 8.19777 43.8756 -9.83338 0.00332589 1 
4062 1 6.55471 42.4877 -7.92549 0.0239031 1 
4063 1 5.80678 45.1094 -8.86269 0.00713874 1 
4064 1 4.16647 43.7337 -6.9601 0.0149495 1 
4065 1 6.73376 44.7472 -6.23475 0.0838056 1 
4066 1 5.15194 43.3545 -4.33317 0.190241 1 
4067 1 2.83965 44.6233 -3.24152 2.64043 5 
4146 1 26.5333 0.312994 -14.385 0.000281367 1 
4147 1 9.8558 45.2517 -11.7083 0.000912378 1 
4429 1 1.6037 15.2463 -14.4942 0.000207731 1 
4509 1 3.43482 18.8515 -14.6155 0.00019499 1 
4510 1 1.78961 17.493 -12.7186 0.000461875 1 
4511 1 1.05541 20.1014 -13.6365 0.000433779 1 
4512 1 1.97709 19.7409 -10.9354 0.00139673 1 
4513 1 0.531249 20.6429 -7.26082 0.0411675 1 
4595 1 5.26216 22.4537 -14.7468 0.000166612 1 
4596 1 3.6191 21.0958 -12.8366 0.000429588 1 
4597 1 2.88462 23.7033 -13.7587 0.000407045 1 
4598 1 1.24413 22.3468 -11.8548 0.00143457 1 
4599 1 3.80345 23.3381 -11.0501 0.00129065 1 
4600 1 2.16892 21.9879 -9.13829 0.00546416 1 
4601 1 1.43261 24.5885 -10.0653 0.00485935 1 
4602 1 2.35912 24.2243 -7.32338 0.02626 1 
4603 1 0.706042 22.8852 -5.45989 0.0372345 1 
4604 1 0.845975 25.1249 -3.71234 0.170001 1 
4686 1 7.0898 26.0576 -14.8881 0.000174401 1 
4687 1 5.44322 24.6944 -12.9712 0.000392845 1 
4688 1 4.70969 27.3033 -13.8967 0.000348132 1 
4689 1 3.06837 25.9425 -11.9775 0.00135804 1 
4690 1 5.62365 26.9316 -11.1943 0.00134449 1 
4691 1 3.98809 25.5733 -9.25459 0.00599567 1 
4692 1 3.24838 28.18 -10.2051 0.00171395 1 
4693 1 1.61109 26.8256 -8.28654 0.00642077 1 
4694 1 4.1688 27.8063 -7.4872 0.00891251 1 
4695 1 2.53018 26.4537 -5.55154 0.04641 1 
4696 1 1.78416 29.0676 -6.53153 0.0173979 1 
4697 1 2.71464 28.6608 -3.84158 0.524864 1 
4698 1 0.902607 27.4196 -2.05194 6.01921 5 
4781 1 7.27031 28.2971 -13.1202 0.000449324 1 
4782 1 6.53886 30.9099 -14.0455 0.000235078 1 
4783 1 4.89016 29.542 -12.1295 0.000620214 1 
4784 1 7.45257 30.5368 -11.3597 0.000864797 1 
4785 1 5.80534 29.1683 -9.43036 0.0030704 1 
4786 1 5.06999 31.7843 -10.3744 0.00125012 1 
4787 1 3.42683 30.4254 -8.45019 0.00410568 1 
4788 1 5.99037 31.4222 -7.69979 0.012861 1 
4789 1 4.34856 30.0659 -5.77485 0.0923374 1 
4790 1 3.62549 32.6804 -6.67745 0.0165989 1 
4791 1 1.99993 31.3265 -4.78102 0.0908348 1 
4792 1 4.61352 32.378 -3.99226 4.10979 5 
4793 1 3.14813 30.8767 -2.22886 5.86312 5 
4794 1 2.27905 33.6009 -2.97547 1.69283 5 
4795 1 1.14608 32.1654 -1.04146 8.85569 5 
4878 1 9.10661 31.9094 -13.2691 0.000256883 1 
4879 1 8.37481 34.5234 -14.1891 0.000135736 1 
4880 1 6.72067 33.1518 -12.2874 0.000416861 1 
4881 1 9.2929 34.1532 -11.5119 0.000355031 1 
4882 1 7.63883 32.7816 -9.61237 0.0014938 1 
4883 1 6.90234 35.3929 -10.5345 0.00145919 1 
4884 1 5.25092 34.0293 -8.62121 0.0046143 1 
4885 1 7.82959 35.0218 -7.86295 0.0112145 1 
4886 1 6.19589 33.6939 -5.94757 0.0222153 1 
4887 1 5.42295 36.2648 -6.87592 0.0167065 1 
4888 1 3.79394 34.9425 -4.9348 0.0771487 1 
4889 1 6.39478 35.9437 -4.1987 0.0631729 1 
4890 1 4.81873 34.6989 -2.2741 9.5556 5 
4891 1 3.96681 37.1376 -3.12537 6.06891 5 
21558 3 35.2027 5.77995 -1.32996 8.36063 5 
4974 1 10.9474 35.5267 -13.4039 0.000171091 1 
4975 1 10.214 38.1395 -14.3203 0.000159309 1 
4976 1 8.55885 36.7658 -12.4295 0.000357021 1 
4977 1 11.1334 37.771 -11.6398 0.000600688 1 
4978 1 9.48111 36.391 -9.74986 0.00348934 1 
4979 1 8.74057 39.007 -10.6799 0.0021776 1 
4980 1 7.07784 37.6282 -8.7924 0.00578175 1 
4981 1 9.65286 38.6203 -8.01507 0.0162196 1 
4982 1 8.00277 37.2242 -6.13461 0.07546 1 
4983 1 7.25272 39.8669 -7.06178 0.0483124 1 
4984 1 5.5978 38.4717 -5.13937 0.0899331 1 
4985 1 8.17193 39.4148 -4.49721 5.42557 5 
4986 1 6.55533 38.1978 -2.4335 7.12281 5 
4987 1 5.89969 40.6902 -3.38649 1.30477 5 
4988 1 4.28724 39.3055 -1.38032 6.02665 5 
5071 1 12.7867 39.144 -13.5234 0.000310542 1 
5072 1 12.0537 41.7564 -14.4406 0.000299994 1 
5073 1 10.4005 40.3859 -12.5586 0.000593001 1 
5074 1 12.9758 41.3932 -11.7516 0.00127592 1 
5075 1 11.3183 40.0174 -9.88185 0.0035787 1 
5076 1 10.5893 42.6391 -10.8037 0.00336373 1 
5077 1 8.92126 41.2598 -8.94824 0.0220679 1 
5078 1 11.5084 42.2856 -8.14967 0.0302973 1 
5079 1 9.81227 40.8962 -6.35678 0.275524 1 
5080 1 9.12391 43.516 -7.16591 0.0446781 1 
5081 1 7.50476 42.0993 -5.21654 1.08393 5 
5082 1 10.0231 43.0884 -4.4335 3.93643 5 
5083 1 8.47885 40.8429 -2.2681 9.61443 5 
5084 1 7.71279 44.4115 -3.63643 5.79179 5 
5085 1 6.39994 42.9134 -1.83965 7.77161 5 
5166 1 14.6229 42.7567 -13.6371 0.000497007 1 
5167 1 31.4891 0.0663749 -14.5555 0.000436094 1 
5168 1 12.2435 44.0063 -12.6697 0.000974317 1 
5169 1 14.8125 45.0049 -11.8545 0.00163408 1 
5170 1 13.1713 43.6481 -9.97701 0.00550825 1 
5171 1 10.7795 44.8939 -9.03512 0.0041254 1 
5172 1 11.6808 44.5366 -6.35337 0.0346959 1 
5173 1 27.77 0.0312091 -2.82625 10.8809 5 
5349 1 1.04434 4.1657 -14.3143 0.000194479 1 
5350 1 1.23061 6.41075 -12.5501 0.000605003 1 
5390 1 2.88534 7.78009 -14.4343 0.00026574 1 
5392 1 0.49877 9.02364 -13.462 0.000432784 1 
5393 1 3.07466 10.0276 -12.6609 0.000779765 1 
5394 1 1.41871 8.65904 -10.7887 0.00264379 1 
5395 1 0.687649 11.271 -11.6947 0.000726017 1 
5396 1 1.60775 10.9099 -9.01894 0.00433445 1 
5453 1 4.72129 11.3888 -14.55 0.000364406 1 
5455 1 2.33949 12.6369 -13.5767 0.000375127 1 
5456 1 4.90817 13.6333 -12.7694 0.000946431 1 
5457 1 3.26377 12.276 -10.8836 0.00136197 1 
5458 1 2.52574 14.8847 -11.8016 0.000631062 1 
5459 1 0.875434 13.5212 -9.92527 0.00165964 1 
5460 1 3.44574 14.5265 -9.10542 0.00237106 1 
5461 1 1.79034 13.1655 -7.24907 0.0103599 1 
5462 1 1.0549 15.7735 -8.14362 0.00595779 1 
5463 1 1.94058 15.4057 -5.44193 0.0342137 1 
5464 1 0.298279 16.1868 -1.83364 7.85324 5 
5537 1 6.5498 14.9908 -14.6739 0.000309474 1 
5539 1 4.17074 16.2421 -13.6935 0.000357012 1 
5540 1 6.73162 17.2325 -12.8982 0.000443358 1 
5541 1 5.09098 15.8776 -10.9896 0.00129186 1 
5542 1 4.35338 18.4873 -11.9156 0.000577679 1 
5543 1 2.70832 17.1343 -10.0204 0.00136502 1 
5544 1 5.26876 18.1247 -9.2112 0.0024374 1 
5545 1 3.6133 16.7799 -7.31967 0.00905229 1 
5546 1 2.89579 19.3864 -8.2239 0.00453034 1 
5547 1 1.23686 18.0352 -6.34712 0.0542044 1 
5548 1 3.80983 19.0474 -5.50207 0.0426183 1 
5549 1 2.10975 17.6784 -3.63963 0.507998 1 
5550 1 1.4737 20.3027 -4.50586 0.373407 1 
5551 1 2.63811 19.9008 -1.69336 8.39138 5 
5633 1 8.37579 18.5929 -14.8127 0.000167189 1 
5635 1 5.99626 19.8435 -13.8244 0.000227207 1 
5636 1 8.55566 20.8348 -13.0447 0.000341445 1 
5637 1 6.91093 19.4763 -11.1255 0.000830829 1 
5638 1 6.17699 22.0863 -12.0478 0.000518978 1 
5639 1 4.53667 20.734 -10.1299 0.00110598 1 
5640 1 7.09173 21.7226 -9.34529 0.00210378 1 
5641 1 5.45397 20.3799 -7.42147 0.00563888 1 
5642 1 4.71952 22.9772 -8.32728 0.00412128 1 
5643 1 3.0908 21.6356 -6.39569 0.0229843 1 
5644 1 5.63794 22.6277 -5.59475 0.0565501 1 
5645 1 4.05343 21.3273 -3.62082 0.724055 1 
5646 1 3.26566 23.8659 -4.5296 0.224988 1 
5647 1 1.58081 22.459 -2.64615 4.56541 5 
5648 1 4.0793 23.3981 -1.42645 9.06876 5 
5649 1 1.51235 24.8663 -1.03739 8.78858 5 
5729 1 10.2055 22.1998 -14.958 0.000171663 1 
5731 1 7.82238 23.4465 -13.9668 0.000251096 1 
5732 1 10.3856 24.4418 -13.1948 0.00043218 1 
5733 1 8.73406 23.0773 -11.2775 0.000898624 1 
5734 1 8.00112 25.6868 -12.1977 0.000599263 1 
5735 1 6.35554 24.3267 -10.2675 0.00123975 1 
5736 1 8.90999 25.3176 -9.50967 0.00237714 1 
5737 1 7.26654 23.9656 -7.5626 0.00968905 1 
5738 1 6.53721 26.5613 -8.48059 0.0053338 1 
5739 1 4.90939 25.2054 -6.50469 0.0324173 1 
5740 1 7.44684 26.191 -5.74268 0.0573049 1 
5741 1 5.80807 24.7981 -3.6825 0.600388 1 
5742 1 5.09404 27.4119 -4.73892 0.181972 1 
5743 1 3.4545 26.0628 -2.69642 1.20607 5 
5744 1 6.21376 27.0161 -2.00716 3.23899 5 
6032 1 10.1936 36.1716 -0.828024 6.49434 5 
5827 1 9.65373 27.0544 -14.1128 0.0002926 1 
5828 1 12.2228 28.0551 -13.3373 0.000463418 1 
5829 1 10.5643 26.6824 -11.4342 0.00111409 1 
5830 1 9.83535 29.2954 -12.3499 0.00061575 1 
5831 1 8.18073 27.9237 -10.4294 0.00177816 1 
5832 1 10.7437 28.9202 -9.67482 0.00322692 1 
5833 1 9.0866 27.5462 -7.73304 0.0115632 1 
5834 1 8.36652 30.1621 -8.67597 0.00520322 1 
5835 1 6.72085 28.7963 -6.7173 0.0364656 1 
5836 1 9.29657 29.7843 -6.00534 0.0249541 1 
5837 1 7.70515 28.4413 -4.02362 0.207209 1 
5838 1 6.94459 31.1034 -5.06785 0.142597 1 
5839 1 5.43528 29.7235 -3.23811 5.78732 5 
5840 1 7.89445 30.8287 -2.43491 7.27896 5 
5923 1 11.4923 30.6686 -14.2513 0.000214391 1 
5924 1 14.065 31.6734 -13.4638 0.000388615 1 
5925 1 12.4067 30.2996 -11.5764 0.00109388 1 
5926 1 11.679 32.9134 -12.4874 0.000264813 1 
5927 1 10.0222 31.5377 -10.5912 0.000920904 1 
5928 1 12.5979 32.5453 -9.81011 0.00138446 1 
5929 1 10.9427 31.1642 -7.92023 0.00646614 1 
5930 1 10.214 33.7838 -8.8393 0.0032415 1 
5931 1 8.56673 32.4231 -6.94926 0.0132646 1 
5932 1 11.127 33.4175 -6.17105 0.0694998 1 
5933 1 9.5008 32.0425 -4.31398 0.220093 1 
5934 1 8.75898 34.666 -5.15595 0.0879377 1 
5935 1 7.10148 33.3583 -3.20134 3.53769 5 
5936 1 9.61753 34.1284 -2.47073 4.2538 5 
5937 1 7.35799 35.6916 -1.48747 8.64731 5 
6018 1 13.333 34.2854 -14.3774 0.000172036 1 
6019 1 15.904 35.2884 -13.5776 0.000354422 1 
6020 1 14.2527 33.922 -11.6949 0.000670904 1 
6021 1 13.52 36.533 -12.6079 0.000351864 1 
6022 1 11.8671 35.1594 -10.7257 0.000657537 1 
6023 1 14.438 36.173 -9.92226 0.00161282 1 
6024 1 12.7813 34.792 -8.05317 0.00805973 1 
6025 1 12.0501 37.4012 -8.9559 0.00488215 1 
6026 1 10.4109 36.0058 -7.04578 0.0514315 1 
6027 1 12.9514 37.021 -6.25742 0.0594975 1 
6028 1 11.2955 35.624 -4.24032 1.92279 5 
6029 1 10.5629 38.1992 -5.33628 0.223702 1 
6030 1 8.96548 36.9209 -3.35185 2.33673 5 
6031 1 11.3694 38.0276 -2.55077 7.58142 5 
10828 1 -2.38421 18.3963 -1.29902 6.37654 5 
6111 1 15.1694 37.8985 -14.4953 0.000204397 1 
6112 1 17.7347 38.8949 -13.694 0.000355787 1 
6113 1 16.0891 37.5365 -11.801 0.000557269 1 
6114 1 15.3553 40.146 -12.7188 0.000466894 1 
6115 1 13.7055 38.7815 -10.8338 0.00116944 1 
6116 1 16.2709 39.7857 -10.0188 0.00123556 1 
6117 1 14.6118 38.424 -8.13687 0.00526416 1 
6118 1 13.8937 41.0339 -9.05451 0.00700543 1 
6119 1 12.2153 39.6467 -7.20093 0.029442 1 
6120 1 14.8025 40.6879 -6.3481 0.0497272 1 
6121 1 13.1287 39.2473 -4.55989 0.260224 1 
6122 1 12.392 41.9412 -5.53084 0.228736 1 
6123 1 10.7186 40.4776 -3.85297 10.4052 5 
6124 1 13.248 41.5677 -2.99626 5.93342 5 
6125 1 11.2472 40.811 -1.29953 7.95862 5 
6126 1 9.37921 43.1782 -1.32756 5.82133 5 
6200 1 17.0005 41.5057 -14.6155 0.000211415 1 
6201 1 19.5607 42.4983 -13.8241 0.000231655 1 
6202 1 17.9175 41.1408 -11.9153 0.000560827 1 
6203 1 17.1852 43.7516 -12.8357 0.000466157 1 
6204 1 15.5437 42.3951 -10.9359 0.00150185 1 
6205 1 18.1018 43.3889 -10.1296 0.00110955 1 
6206 1 16.461 42.0393 -8.2247 0.00441056 1 
6207 1 15.7357 44.6443 -9.13836 0.00538853 1 
6208 1 14.0979 43.2985 -7.26344 0.0377417 1 
6209 1 16.6588 44.2888 -6.3983 0.0238193 1 
6210 1 15.0475 42.9545 -4.51246 0.362558 1 
6211 1 31.8733 0.237789 -5.46538 0.0399784 1 
6212 1 12.6103 44.1564 -3.68999 5.45143 5 
6213 1 15.1465 45.1018 -2.64941 4.61782 5 
6214 1 12.1386 43.5351 -0.838712 8.16406 5 
6282 1 18.8279 45.1099 -14.7448 0.000179286 1 
6283 1 19.742 44.7423 -12.0462 0.000516318 1 
6284 1 35.8857 0.331966 -8.32635 0.00406492 1 
6362 1 1.77664 1.55313 -13.4013 0.000256392 1 
6363 1 2.69663 1.18438 -10.7275 0.000810386 1 
6364 1 1.23555 2.03245 -7.06555 0.0207863 1 
6379 1 6.00225 3.92366 -14.4946 0.000215782 1 
6380 1 4.35167 2.55833 -12.6084 0.000402003 1 
6381 1 3.61834 5.16916 -13.5202 0.000308548 1 
6382 1 1.96323 3.79692 -11.6371 0.000588561 1 
6383 1 4.5391 4.80617 -10.8339 0.00115701 1 
6384 1 2.88282 3.42458 -8.96121 0.00338433 1 
6385 1 2.14849 6.04088 -9.87793 0.00278702 1 
6386 1 0.479359 4.64607 -8.01258 0.0161675 1 
6387 1 3.05369 5.66543 -7.20953 0.0174957 1 
6388 1 1.39399 4.22603 -5.36548 0.116741 1 
6389 1 0.635301 6.88684 -6.30564 0.13174 1 
6390 1 1.55673 6.42922 -3.79761 5.67185 5 
6422 1 7.83439 7.52918 -14.6127 0.000196701 1 
6423 1 6.18898 6.17033 -12.7168 0.00046251 1 
6424 1 5.4555 8.77972 -13.6325 0.000444263 1 
6425 1 3.80748 7.41699 -11.7463 0.00117845 1 
6426 1 6.37701 8.4181 -10.9318 0.0013766 1 
6427 1 4.72719 7.05782 -9.05192 0.00688918 1 
6428 1 4.00096 9.66857 -9.96773 0.00478304 1 
6429 1 2.33229 8.29865 -8.13435 0.0267753 1 
6430 1 4.93128 9.31837 -7.2577 0.0409841 1 
6431 1 3.2196 7.9474 -5.53069 0.254745 1 
6432 1 2.52239 10.5615 -6.35191 0.0440031 1 
6433 1 0.889004 9.11197 -4.44 3.8323 5 
6434 1 3.43677 10.1797 -3.68043 5.51516 5 
6435 1 0.188382 9.39185 -1.13427 5.83336 5 
6436 1 1.00707 11.3851 -2.81007 9.33338 5 
6485 1 9.66189 11.1311 -14.7414 0.000166888 1 
6486 1 8.01897 9.77348 -12.8317 0.000420969 1 
6487 1 7.28473 12.3821 -13.7515 0.000400447 1 
6488 1 5.64438 11.026 -11.8486 0.00141048 1 
6489 1 8.20321 12.0162 -11.0433 0.00122679 1 
6490 1 6.56894 10.6653 -9.13321 0.00533414 1 
6491 1 5.83253 13.2693 -10.0566 0.00461971 1 
6492 1 4.19037 11.9177 -8.18296 0.00652225 1 
6493 1 6.75863 12.9019 -7.31731 0.0257851 1 
6494 1 5.10587 11.56 -5.4562 0.0372882 1 
6495 1 4.35532 14.1636 -6.40827 0.0123284 1 
6496 1 2.67175 12.8209 -4.58823 0.115906 1 
6497 1 5.24548 13.7992 -3.70871 0.172247 1 
6498 1 3.44728 12.4062 -1.96926 8.09714 5 
6499 1 2.7984 14.9995 -2.73579 4.98949 5 
10842 1 -0.727223 7.49868 -2.64861 3.64837 5 
6564 1 11.4891 14.7341 -14.8813 0.000182102 1 
6565 1 9.84275 13.372 -12.9637 0.000377189 1 
6566 1 9.10935 15.9816 -13.8872 0.000326763 1 
6567 1 7.46821 14.6226 -11.9676 0.00126347 1 
6568 1 10.0225 15.6099 -11.1847 0.00121041 1 
6569 1 8.38716 14.2524 -9.24589 0.0057314 1 
6570 1 7.64769 16.8625 -10.1912 0.00164743 1 
6571 1 6.00981 15.5095 -8.27479 0.00615527 1 
6572 1 8.56657 16.4864 -7.47608 0.00961093 1 
6573 1 6.92814 15.131 -5.5457 0.0464349 1 
6574 1 6.18031 17.7563 -6.51449 0.0221037 1 
6575 1 4.48649 16.4151 -4.65784 0.10446 1 
6576 1 7.10881 17.3355 -3.837 0.5281 1 
6577 1 5.3013 16.0945 -2.04769 6.06004 5 
6578 1 4.78361 18.6706 -2.84238 1.6056 5 
6579 1 2.74355 17.0793 -1.00001 6.56169 5 
6659 1 11.6691 16.9736 -13.112 0.000452365 1 
6660 1 10.9378 19.5865 -14.0358 0.000259231 1 
6661 1 9.28938 18.2214 -12.1169 0.000581497 1 
6662 1 11.8504 19.2135 -11.3499 0.000893056 1 
6663 1 10.2032 17.8481 -9.41797 0.0028907 1 
6664 1 9.46865 20.4657 -10.3568 0.00153558 1 
6665 1 7.82528 19.1117 -8.43024 0.00559827 1 
6666 1 10.3875 20.1041 -7.68347 0.0144633 1 
6667 1 8.74399 18.7468 -5.76275 0.101525 1 
6668 1 8.02354 21.3717 -6.64466 0.0174286 1 
6669 1 6.39239 20.0187 -4.75157 0.119173 1 
6670 1 9.01458 21.0491 -3.97096 4.13456 5 
6671 1 7.54051 19.5374 -2.21481 5.81722 5 
6672 1 6.68351 22.2853 -2.94188 1.69192 5 
6673 1 5.52554 20.8384 -1.04303 10.196 5 
6756 1 13.5046 20.5839 -13.2629 0.00034219 1 
6757 1 12.773 23.198 -14.182 0.000226137 1 
6758 1 11.1187 21.8288 -12.2754 0.000543852 1 
6759 1 13.6896 22.8272 -11.5068 0.000618714 1 
6760 1 12.0353 21.459 -9.60127 0.00187371 1 
6761 1 11.299 24.0711 -10.5186 0.00153032 1 
6762 1 9.64955 22.7141 -8.5948 0.00416594 1 
6763 1 12.2228 23.7029 -7.85116 0.00688269 1 
6764 1 10.5937 22.3768 -5.92461 0.0130343 1 
6765 1 9.82711 24.9592 -6.83122 0.0177727 1 
6766 1 8.20803 23.6448 -4.8893 0.11 1 
6767 1 10.7997 24.636 -4.15851 0.138816 1 
6768 1 9.25285 23.329 -2.27545 8.96149 5 
6769 1 8.41178 25.8387 -2.97644 4.71151 5 
21494 3 4.04826 28.4548 -1.32809 8.44275 5 
6851 1 15.3452 24.2005 -13.4009 0.000247391 1 
6852 1 14.6117 26.8137 -14.3154 0.000179512 1 
6853 1 12.9556 25.4408 -12.4223 0.00051839 1 
6854 1 15.5305 26.4452 -11.6381 0.000549247 1 
6855 1 13.8748 25.0656 -9.7508 0.00245642 1 
6856 1 13.1358 27.6823 -10.6685 0.00244266 1 
6857 1 11.4745 26.3068 -8.76519 0.00543412 1 
6858 1 14.0467 27.2932 -8.01541 0.0164417 1 
6859 1 12.3977 25.915 -6.10057 0.0365132 1 
6860 1 11.6478 28.5275 -7.01236 0.0236646 1 
6861 1 10.0013 27.162 -5.02456 0.097308 1 
6862 1 12.5437 28.0495 -4.35298 0.289018 1 
6863 1 10.8976 26.8142 -2.18677 6.29019 5 
6864 1 10.232 29.3751 -3.31677 0.350559 1 
6865 1 8.53341 28.295 -1.22536 8.32666 5 
6943 1 17.1841 27.8182 -13.5213 0.000311288 1 
6944 1 16.4506 30.4299 -14.436 0.00026172 1 
6945 1 14.797 29.0599 -12.5515 0.000565498 1 
6946 1 17.3714 30.0674 -11.7475 0.00116554 1 
6947 1 15.7139 28.6907 -9.87888 0.00271459 1 
6948 1 14.9833 31.3097 -10.7891 0.00259235 1 
6949 1 13.3157 29.9275 -8.91882 0.0110118 1 
6950 1 15.8944 30.9503 -8.13369 0.0269592 1 
6951 1 14.2005 29.5337 -6.30771 0.136575 1 
6952 1 13.516 32.1732 -7.12555 0.031638 1 
6953 1 11.8621 30.7509 -5.25446 0.100269 1 
6954 1 14.4564 31.7603 -4.43844 3.70738 5 
6955 1 12.8468 30.1274 -2.65432 3.75808 5 
6956 1 12.1219 32.9808 -3.58748 3.09525 5 
6957 1 10.6788 31.6348 -1.77784 6.36279 5 
7029 1 19.0185 31.4304 -13.6346 0.000453048 1 
7030 1 18.2847 34.0402 -14.5519 0.000367061 1 
7031 1 16.6384 32.6786 -12.6619 0.000751469 1 
7032 1 19.2055 33.6777 -11.8502 0.00139075 1 
7033 1 17.5621 32.3203 -9.96802 0.00465826 1 
7034 1 16.8253 34.9278 -10.883 0.0012571 1 
7035 1 15.1688 33.5622 -9.01633 0.00431356 1 
7036 1 17.7481 34.57 -8.18129 0.00643758 1 
7037 1 16.0791 33.2157 -6.34926 0.0475682 1 
7038 1 15.3455 35.8189 -7.24187 0.0108298 1 
7039 1 13.668 34.444 -5.40297 0.158829 1 
7040 1 16.2152 35.4741 -4.5772 0.109063 1 
7041 1 14.5459 34.049 -2.8031 10.7804 5 
7042 1 13.7591 36.6463 -3.48693 4.52735 5 
7043 1 12.0329 34.1156 -1.09089 5.16472 5 
10841 1 -0.0997185 5.03314 -1.56897 6.29307 5 
7112 1 20.8461 35.0341 -13.7544 0.000408047 1 
7113 1 20.1125 37.6436 -14.6757 0.000310851 1 
7114 1 18.4704 36.2855 -12.7704 0.000924167 1 
7115 1 21.0287 37.2755 -11.9698 0.00123059 1 
7116 1 19.3918 35.9215 -10.0572 0.00454037 1 
7117 1 18.6524 38.5299 -10.9895 0.0012357 1 
7118 1 17.0046 37.178 -9.1028 0.00207104 1 
7119 1 19.569 38.1606 -8.27458 0.00610029 1 
7120 1 17.911 36.813 -6.4048 0.0114383 1 
7121 1 17.1738 39.4295 -7.31829 0.00855412 1 
7122 1 15.4964 38.0571 -5.43667 0.0359215 1 
7123 1 18.0465 39.0639 -4.65653 0.105618 1 
7124 1 16.3599 37.6414 -2.73596 4.9919 5 
7125 1 15.6722 40.3298 -3.6332 0.513922 1 
7126 1 13.8697 38.8264 -1.82838 5.94362 5 
7127 1 16.325 39.7179 -1.0018 6.63939 5 
7190 1 22.6709 38.6351 -13.8901 0.000325989 1 
7191 1 21.9391 41.2472 -14.8138 0.000166985 1 
7192 1 20.2942 39.8861 -12.8991 0.000436532 1 
7193 1 22.8513 40.8758 -12.1186 0.00056925 1 
7194 1 21.2085 39.5156 -10.1926 0.00162852 1 
7195 1 20.4742 42.1307 -11.1256 0.000806619 1 
7196 1 18.8312 40.7769 -9.21115 0.00237252 1 
7197 1 21.3878 41.7652 -8.43114 0.00549066 1 
7198 1 19.7423 40.407 -6.51521 0.0220257 1 
7199 1 19.019 43.0326 -7.42217 0.00552622 1 
7200 1 17.3761 41.6961 -5.503 0.0414787 1 
7201 1 19.958 42.6695 -4.75276 0.117846 1 
7202 1 18.3527 41.3164 -2.84311 1.57935 5 
7203 1 17.6222 43.9753 -3.62318 0.736298 1 
7204 1 16.2142 42.5484 -1.69488 8.29447 5 
7205 1 19.0949 43.486 -1.04178 10.2026 5 
7262 1 24.5006 42.2411 -14.0375 0.000254236 1 
7263 1 23.7698 44.8547 -14.9577 0.00016931 1 
7264 1 22.1194 43.4899 -13.0445 0.000328494 1 
7265 1 24.6823 44.484 -12.2754 0.000516397 1 
7266 1 23.0317 43.1208 -10.3571 0.00145675 1 
7267 1 20.6563 44.3779 -9.34454 0.00204045 1 
7268 1 40.8141 0.0687654 -8.59339 0.00399304 1 
7269 1 21.5881 44.0255 -6.6447 0.0172313 1 
7270 1 19.204 45.2801 -5.59519 0.0563156 1 
7271 1 20.248 44.9349 -2.94176 1.74437 5 
7346 1 3.61523 0.813192 -8.06139 0.00585667 1 
7347 1 4.51451 0.457149 -5.41546 0.110472 1 
7348 1 2.14891 1.65197 -4.3354 1.57367 5 
7349 1 0.506994 0.250571 -2.4901 4.07722 5 
7350 1 2.8318 0.218156 -1.07816 5.58108 5 
7358 1 6.73632 1.31362 -13.5801 0.000389167 1 
7359 1 9.30525 2.31017 -12.7726 0.000954186 1 
7360 1 7.65942 0.951585 -10.8879 0.00138943 1 
7361 1 6.92383 3.56109 -11.8024 0.000623153 1 
7362 1 5.27273 2.19644 -9.92693 0.00162193 1 
7363 1 7.84341 3.20102 -9.10641 0.00226966 1 
7364 1 6.18694 1.83849 -7.25064 0.0100165 1 
7365 1 5.45369 4.4479 -8.14316 0.00592756 1 
7366 1 3.80111 3.04404 -6.27889 0.042473 1 
7367 1 6.33947 4.07761 -5.44122 0.0342066 1 
7368 1 4.63493 2.64058 -3.50682 4.73889 5 
7369 1 3.96534 5.25647 -4.56298 0.177864 1 
7370 1 2.28941 3.93571 -2.61116 5.35653 5 
7371 1 4.69729 4.8572 -1.83303 7.86818 5 
7372 1 2.01503 7.06529 -1.29784 6.38026 5 
7393 1 10.948 3.66831 -14.6756 0.000282392 1 
7395 1 8.56951 4.91931 -13.6931 0.000357212 1 
7396 1 11.1309 5.90909 -12.8963 0.000437435 1 
7397 1 9.48972 4.5535 -10.9893 0.00127256 1 
7398 1 8.753 7.16394 -11.9127 0.000555216 1 
7399 1 7.10761 5.80995 -10.0189 0.0012975 1 
7400 1 9.6689 6.7991 -9.20834 0.00233837 1 
7401 1 8.01286 5.45297 -7.31844 0.00867602 1 
7402 1 7.29589 8.06114 -8.22103 0.00438975 1 
7403 1 5.63668 6.70846 -6.3456 0.0537937 1 
7404 1 8.21056 7.71888 -5.50014 0.041456 1 
7405 1 6.50987 6.34927 -3.6382 0.507287 1 
7406 1 5.87367 8.97433 -4.50418 0.37131 1 
7407 1 4.06667 7.57435 -3.00453 6.62078 5 
7408 1 7.03863 8.57137 -1.69168 8.39431 5 
7410 1 2.98203 9.66174 -0.834338 9.71796 5 
7447 1 12.7752 7.26958 -14.81 0.000177419 1 
7449 1 10.3959 8.52045 -13.8206 0.000219927 1 
7450 1 12.9554 9.51031 -13.0398 0.000336592 1 
7451 1 11.3111 8.15158 -11.1212 0.000792551 1 
7452 1 10.5768 10.7627 -12.0421 0.000501953 1 
7453 1 8.93678 9.41006 -10.1254 0.00105392 1 
7454 1 11.4923 10.3969 -9.33977 0.00207562 1 
7455 1 9.8549 9.05308 -7.4176 0.00550542 1 
7456 1 9.1196 11.6529 -8.32181 0.00396968 1 
7457 1 7.49105 10.3093 -6.39227 0.0226538 1 
7458 1 10.0389 11.2995 -5.59125 0.0555199 1 
7459 1 8.45419 9.99653 -3.61928 0.72084 1 
7460 1 7.66553 12.5374 -4.52698 0.223836 1 
7461 1 5.9799 11.1289 -2.64505 4.55374 5 
7462 1 8.47763 12.0614 -1.42753 9.07947 5 
7463 1 5.90917 13.5326 -1.03509 8.8214 5 
7517 1 14.6049 10.8753 -14.9535 0.000172593 1 
7519 1 12.2219 12.1226 -13.961 0.000249198 1 
7520 1 14.785 13.1165 -13.1891 0.000432723 1 
7521 1 13.134 11.7521 -11.2711 0.000862239 1 
7522 1 12.4003 14.3626 -12.1906 0.000590288 1 
7523 1 10.7552 13.0032 -10.2604 0.00116417 1 
7524 1 13.3098 13.9923 -9.50273 0.00224815 1 
7525 1 11.6672 12.6397 -7.55694 0.00951482 1 
7526 1 10.9362 15.2384 -8.47244 0.00484539 1 
7527 1 9.30913 13.8806 -6.4987 0.0323884 1 
7528 1 11.8475 14.8649 -5.73764 0.0552239 1 
7529 1 10.2092 13.4683 -3.67929 0.60016 1 
7530 1 9.49215 16.0838 -4.73104 0.187818 1 
7531 1 7.85183 14.7283 -2.69559 1.18653 5 
7532 1 10.6139 15.6822 -1.99911 3.26096 5 
10834 1 44.321 0.685419 -5.17241 0.027736 1 
7606 1 14.0527 15.7293 -14.107 0.000317018 1 
7607 1 16.6221 16.7286 -13.3331 0.000498093 1 
7608 1 14.9636 15.3564 -11.4282 0.00112143 1 
7609 1 14.2338 17.9698 -12.344 0.000677617 1 
7610 1 12.5792 16.5996 -10.4215 0.00167926 1 
7611 1 15.1428 17.5933 -9.66983 0.00321499 1 
7612 1 13.486 16.222 -7.72595 0.0107148 1 
7613 1 12.7642 18.8375 -8.66741 0.00522764 1 
7614 1 11.1189 17.4737 -6.70719 0.0373078 1 
7615 1 13.6973 18.4623 -5.99623 0.0200986 1 
7616 1 12.1055 17.112 -4.01873 0.200951 1 
7617 1 11.3457 19.7787 -5.05565 0.136152 1 
7618 1 9.82918 18.3891 -3.2343 5.88574 5 
7619 1 12.2823 19.4809 -2.42344 7.17968 5 
7696 1 15.8911 19.3423 -14.2474 0.000253632 1 
7697 1 18.4648 20.3463 -13.4622 0.000423461 1 
7698 1 16.806 18.972 -11.5737 0.00114735 1 
7699 1 16.0776 21.5864 -12.4853 0.000344627 1 
7700 1 14.4199 20.211 -10.5868 0.00116076 1 
7701 1 16.9981 21.2163 -9.81144 0.00141426 1 
7702 1 15.3429 19.8343 -7.91904 0.00569533 1 
7703 1 14.6109 22.4555 -8.8398 0.00252067 1 
7704 1 12.9656 21.0945 -6.94259 0.0102437 1 
7705 1 15.5329 22.0787 -6.18181 0.0309488 1 
7706 1 13.9072 20.7251 -4.29545 0.132416 1 
7707 1 13.1579 23.3298 -5.17655 0.0283005 1 
7708 1 11.5467 22.0201 -3.19979 3.69815 5 
7709 1 14.087 22.8961 -2.49876 4.2266 5 
7710 1 11.7811 24.2596 -1.47691 10.2443 5 
7781 1 17.732 22.9587 -14.3759 0.000194578 1 
7782 1 20.304 23.9615 -13.5779 0.00038103 1 
7783 1 18.6533 22.5943 -11.6957 0.000711244 1 
7784 1 17.919 25.2066 -12.608 0.000407854 1 
7785 1 16.2658 23.8318 -10.7271 0.000816077 1 
7786 1 18.8405 24.8454 -9.92675 0.00169552 1 
7787 1 17.1855 23.461 -8.06139 0.00602521 1 
7788 1 16.4503 26.0733 -8.96254 0.00318582 1 
7789 1 14.8049 24.6787 -7.0691 0.0196617 1 
7790 1 17.3701 25.6929 -6.28147 0.0418555 1 
7791 1 15.7205 24.3001 -4.34248 1.5946 5 
7792 1 14.9628 26.8712 -5.36925 0.121149 1 
7793 1 13.355 25.5395 -3.38881 0.186905 1 
7794 1 15.8579 26.5802 -2.61115 5.31427 5 
7796 1 13.4626 27.6654 -1.56441 6.25752 5 
7862 1 19.5679 26.5722 -14.495 0.000221486 1 
7863 1 22.1332 27.5684 -13.695 0.000381235 1 
7864 1 20.4893 26.2103 -11.8029 0.000657972 1 
7865 1 19.7527 28.8203 -12.7187 0.000487795 1 
7866 1 18.1044 27.4559 -10.835 0.00117797 1 
7867 1 20.6705 28.4607 -10.0212 0.00136118 1 
7868 1 19.019 27.0986 -8.14474 0.00602815 1 
7869 1 18.2898 29.709 -9.05309 0.00681093 1 
7870 1 16.6188 28.3156 -7.21024 0.0177749 1 
7871 1 19.1995 29.3601 -6.34704 0.0544921 1 
7872 1 17.5327 27.905 -4.56479 0.182299 1 
7873 1 16.7825 30.5986 -5.53021 0.253972 1 
7874 1 15.126 29.0732 -3.80306 5.75015 5 
7875 1 17.636 30.2249 -3.00564 6.49057 5 
7876 1 15.5971 29.6822 -1.29956 6.44118 5 
7877 1 13.7922 32.0066 -1.14318 5.60797 5 
7939 1 21.3971 30.1792 -14.6157 0.00021785 1 
7940 1 23.9566 31.1711 -13.8258 0.00025893 1 
7941 1 22.3143 29.8147 -11.9164 0.000616758 1 
7942 1 21.5798 32.4249 -12.8353 0.000447059 1 
7943 1 19.9383 31.0694 -10.9341 0.00138375 1 
7944 1 22.4957 32.0621 -10.1298 0.00110198 1 
7945 1 20.856 30.7131 -8.22377 0.00433205 1 
7946 1 20.1276 33.3175 -9.13498 0.00529556 1 
7947 1 18.4905 31.9708 -7.25821 0.0406815 1 
7948 1 21.0486 32.9615 -6.3949 0.0227892 1 
7949 1 19.4351 31.6266 -4.50698 0.373191 1 
7950 1 18.6593 34.2116 -5.45378 0.0378069 1 
7951 1 16.9908 32.8299 -3.67894 5.45476 5 
7952 1 19.538 33.7747 -2.64389 4.46032 5 
7953 1 16.5697 32.2894 -0.835239 8.02632 5 
7954 1 17.0118 35.0454 -1.96762 8.03001 5 
8011 1 23.2228 33.7827 -14.746 0.000185194 1 
8012 1 25.7813 34.7748 -13.9679 0.000277318 1 
8013 1 24.1356 33.4149 -12.048 0.000537162 1 
8014 1 23.4026 36.0248 -12.9683 0.000396595 1 
8015 1 21.7623 34.6686 -11.0467 0.00123622 1 
8016 1 24.3128 35.6563 -10.2662 0.0012121 1 
8017 1 22.6767 34.3054 -8.3261 0.00402032 1 
8018 1 21.9455 36.905 -9.24878 0.00560506 1 
8019 1 20.3154 35.5533 -7.31789 0.0255851 1 
8020 1 22.8662 36.5326 -6.50278 0.0315112 1 
8021 1 21.2227 35.1867 -4.52909 0.222117 1 
8022 1 20.4869 37.7811 -5.54638 0.0467735 1 
8023 1 18.8044 36.4462 -3.70893 0.170689 1 
8024 1 21.4149 37.3759 -2.69749 1.17799 5 
8025 1 19.4743 36.1772 -1.03534 8.82373 5 
8026 1 18.8719 38.7392 -2.04964 6.91375 5 
8077 1 25.0499 37.3871 -14.8864 0.000194715 1 
8078 1 27.6127 38.3827 -14.1139 0.000333652 1 
8079 1 25.9589 37.0161 -12.1972 0.000616136 1 
8080 1 25.2298 39.6277 -13.1161 0.000450859 1 