ITEM: TIMESTEP
0
ITEM: NUMBER OF ATOMS
6217
ITEM: BOX BOUNDS xy xz yz pp pp ss
0 45.763533766 7.771166111
0 91.49040374400001 0
-142.7000049925139 155.7690602150976 0
ITEM: ATOMS id type x y z c_csym c_cna 
2958 1 35.9694 0.472067 -14.0035 0.000279486 1 
36995 2 38.9225 89.5767 3.69285 0.0819563 1 
4062 1 36.7491 3.31375 -4.75537 0.597039 1 
4063 1 37.2576 2.75592 -2.20182 7.00259 5 
4064 1 37.2421 0.59673 -3.98377 6.56071 5 
4065 1 35.2551 0.885513 -1.84656 4.72077 5 
4066 1 35.9381 4.60749 -10.0675 0.00913533 1 
4067 1 36.343 3.95795 -7.37777 0.084372 1 
4068 1 36.3744 1.87556 -9.30718 0.016013 1 
4069 1 36.7823 1.22326 -6.62063 0.109319 1 
4070 1 34.1942 2.07194 -7.37402 0.0230952 1 
4071 1 34.6142 1.4042 -4.60295 0.182815 1 
4076 1 35.5251 5.26591 -12.7942 0.00100936 1 
4077 1 35.5353 3.19999 -14.7699 0.000248231 1 
4078 1 35.9566 2.5372 -12.0308 0.00182318 1 
4079 1 33.3667 3.38517 -12.8915 0.000414771 1 
4080 1 33.7834 2.72501 -10.1388 0.00303304 1 
4081 1 33.8026 0.659332 -12.1233 0.000605966 1 
4082 1 34.2274 0.000604789 -9.36824 0.00477229 1 
4083 1 31.6419 0.847673 -10.2358 0.00296729 1 
4084 1 32.0802 0.188512 -7.46294 0.03431 1 
4096 1 33.3786 1.32104 -14.874 9.55235e-05 1 
4098 1 31.2147 1.50749 -12.9948 0.000342776 1 
36994 2 39.7532 84.2706 5.7611 0.00743934 1 
5358 1 37.4922 4.88607 -0.559465 10.3594 5 
5359 1 35.9237 8.75571 -6.08682 0.0470345 1 
5360 1 36.3161 8.097 -3.29085 6.52758 5 
5361 1 36.295 6.06954 -5.4652 0.455613 1 
5362 1 36.6018 5.40676 -2.92036 10.2292 5 
5363 1 34.0895 6.25706 -3.46327 0.408618 1 
5364 1 34.7322 5.85429 -0.759977 7.74867 5 
5365 1 34.5684 3.52468 -2.6575 0.577318 1 
5366 1 41.0304 91.4475 -0.253977 5.96148 5 
5367 1 36.8416 12.5981 -14.1946 3.10816e-05 1 
5368 1 37.2658 11.9338 -11.4499 0.000141674 1 
5369 1 37.2657 9.8715 -13.4371 6.73267e-05 1 
5370 1 35.0979 10.059 -11.5714 0.000558698 1 
5371 1 35.5145 9.40117 -8.83425 0.00427325 1 
5372 1 35.5158 7.33465 -10.8205 0.00343561 1 
5373 1 35.9186 6.68804 -8.11062 0.041535 1 
5374 1 33.3349 7.5175 -8.94369 0.00875784 1 
5375 1 33.7205 6.86768 -6.20852 0.0592768 1 
5376 1 33.7531 4.79355 -8.1633 0.00941253 1 
5377 1 34.161 4.15274 -5.39951 0.0454922 1 
5378 1 31.587 4.9836 -6.21359 0.0472876 1 
5379 1 31.9808 4.36998 -3.41121 0.413873 1 
5380 1 32.0465 2.2573 -5.43045 0.0990303 1 
5381 1 32.5279 1.55982 -2.62185 6.63469 5 
5382 1 29.9503 2.27355 -3.55288 6.55538 5 
5383 1 28.643 0.137069 -1.49137 9.70392 5 
5389 1 34.6767 10.7198 -14.3128 0.000120595 1 
5391 1 35.0998 7.99324 -13.5544 0.000401302 1 
5392 1 32.5123 8.83896 -14.4247 0.000190326 1 
5393 1 32.929 8.17696 -11.6815 0.00118457 1 
5394 1 32.937 6.11187 -13.6596 0.000292461 1 
5395 1 33.3506 5.45032 -10.9132 0.00164239 1 
5396 1 30.7705 6.29465 -11.7745 0.000838622 1 
5397 1 31.1831 5.63312 -9.00779 0.00636026 1 
5398 1 31.2016 3.57058 -11.0028 0.00176545 1 
5399 1 31.6219 2.91145 -8.22923 0.012389 1 
5400 1 29.0381 3.75743 -9.12677 0.0047582 1 
5401 1 29.4678 3.0957 -6.36397 0.0869146 1 
5402 1 29.4817 1.03577 -8.37692 0.00822286 1 
5403 1 29.9197 0.381276 -5.66053 7.13766 5 
5404 1 27.2829 1.24713 -6.56768 0.10693 1 
5405 1 27.7197 0.614171 -3.9441 6.77383 5 
5422 1 30.3521 6.95807 -14.5295 0.000118681 1 
5424 1 30.7808 4.23234 -13.7613 0.000229168 1 
5425 1 28.1946 5.07958 -14.6383 4.55711e-05 1 
5426 1 28.6162 4.41787 -11.8839 0.000350063 1 
5427 1 28.6259 2.35492 -13.8731 5.26882e-05 1 
5428 1 29.0511 1.69496 -11.1223 0.000576774 1 
5429 1 26.4591 2.54177 -12 0.000638784 1 
5430 1 26.8771 1.88638 -9.2625 0.0100494 1 
5431 1 24.7311 0.00550946 -9.34904 0.00305937 1 
5457 1 26.0374 3.20174 -14.75 5.4483e-05 1 
5459 1 26.4708 0.47657 -13.9856 7.70907e-05 1 
5460 1 23.8823 1.32342 -14.8606 5.74365e-05 1 
5461 1 24.3067 0.663324 -12.1062 0.000334258 1 
6822 1 35.8105 12.6993 -1.70341 5.27043 5 
6823 1 36.8502 16.7204 -10.2122 0.000187491 1 
6824 1 37.2742 16.0516 -7.46483 0.00307705 1 
6825 1 37.2671 13.9941 -9.45982 0.00121579 1 
6826 1 35.1104 14.1698 -7.56539 0.0138038 1 
6827 1 35.5306 13.4747 -4.78869 0.234456 1 
6828 1 35.5316 11.4457 -6.81991 0.038027 1 
6829 1 35.974 10.7756 -3.99496 0.791278 1 
6830 1 33.3372 11.6688 -5.05936 0.329441 1 
6831 1 33.6974 11.0558 -2.45333 7.13953 5 
6832 1 33.7435 8.9507 -4.29312 0.489027 1 
6833 1 34.1592 8.41886 -1.63075 7.15262 5 
6834 1 31.5793 9.25562 -2.09139 2.30441 5 
6835 1 32.0488 6.62064 -1.1665 6.74489 5 
6837 1 36.4222 17.3862 -12.9605 4.27802e-05 1 
6838 1 36.4175 15.3243 -14.9518 2.34238e-05 1 
6839 1 36.8441 14.6603 -12.2049 9.44389e-05 1 
6840 1 34.2574 15.5083 -13.0799 6.28783e-05 1 
6841 1 34.6846 14.843 -10.3288 0.000885381 1 
6842 1 34.6786 12.7834 -12.3245 0.00015352 1 
6843 1 35.1023 12.1201 -9.57683 0.00208492 1 
6844 1 32.5147 12.9671 -10.4586 0.0014088 1 
6845 1 32.9313 12.3109 -7.73027 0.0226585 1 
6846 1 32.9275 10.2421 -9.70439 0.00399059 1 
6847 1 33.3359 9.58296 -6.98227 0.0483605 1 
6848 1 30.7666 10.4126 -7.80596 0.0107738 1 
6849 1 31.1825 9.7724 -5.00387 0.200605 1 
6850 1 31.1745 7.69405 -7.0054 0.0352952 1 
6851 1 31.5644 7.07976 -4.15634 0.381856 1 
6852 1 29.0318 7.81811 -5.14278 0.122154 1 
6853 1 29.4641 7.02882 -2.31598 1.56288 5 
6854 1 29.42 5.06925 -4.29913 0.334869 1 
6855 1 29.8712 4.24646 -1.46659 5.80339 5 
6856 1 27.2271 5.42598 -2.34671 6.67298 5 
6857 1 27.6533 2.74933 -2.09981 9.85053 5 
6870 1 32.0912 13.6295 -13.2004 0.000161319 1 
6872 1 32.5109 10.9033 -12.4426 0.000468962 1 
6873 1 29.9263 11.7478 -13.3124 0.000104035 1 
6874 1 30.3475 11.0812 -10.5641 0.000649447 1 
6875 1 30.3476 9.02025 -12.5458 0.000307399 1 
6876 1 30.7636 8.35463 -9.78802 0.00293357 1 
6877 1 28.1861 9.19969 -10.6676 0.000402985 1 
6878 1 28.6065 8.52571 -7.90787 0.00550981 1 
6879 1 28.6071 6.47598 -9.8897 0.00207028 1 
6880 1 29.0218 5.80466 -7.11231 0.0273403 1 
6881 1 26.4382 6.67074 -8.01277 0.00657632 1 
6882 1 26.846 6.03307 -5.22875 0.0882738 1 
6883 1 26.849 3.96945 -7.29138 0.0564083 1 
6884 1 27.2401 3.3576 -4.63879 0.707338 1 
6885 1 24.6592 4.14751 -5.36861 0.0421469 1 
6886 1 25.0773 3.5587 -2.62598 0.435774 1 
6887 1 25.1108 1.41767 -4.57704 0.13433 1 
6888 1 25.7133 0.842225 -1.85552 4.30257 5 
6889 1 23.0171 1.56456 -2.61359 6.6298 5 
6890 1 31.5154 91.4337 -0.248042 6.10164 5 
6912 1 27.7646 9.86694 -13.4208 6.31661e-05 1 
6914 1 28.1885 7.14087 -12.6512 0.000218474 1 
6915 1 25.6039 7.98856 -13.5303 4.62644e-05 1 
6916 1 26.0238 7.32605 -10.7755 0.000475371 1 
6917 1 26.0291 5.26496 -12.7636 0.000211299 1 
6918 1 26.4446 4.60895 -10.0148 0.00367463 1 
6919 1 23.8608 5.44892 -10.8841 0.000759101 1 
6920 1 24.2658 4.79344 -8.12545 0.00614347 1 
6921 1 24.2897 2.72835 -10.1136 0.00152186 1 
6922 1 24.6969 2.07461 -7.34858 0.0128491 1 
6923 1 22.1272 2.91365 -8.21296 0.00992191 1 
6924 1 22.5436 2.25717 -5.41623 0.087873 1 
6925 1 22.582 0.1898 -7.4495 0.0327035 1 
6926 1 20.4178 0.382169 -5.6515 7.17188 5 
6959 1 23.4438 6.11019 -13.6399 0.000104331 1 
6961 1 23.8724 3.38675 -12.8716 0.000191075 1 
6962 1 21.2874 4.23254 -13.7494 0.000168558 1 
6963 1 21.7088 3.57158 -10.988 0.00126524 1 
6964 1 21.7199 1.50931 -12.9835 0.000282715 1 
6965 1 22.1464 0.85021 -10.2226 0.00261445 1 
6966 1 19.5561 1.69624 -11.1145 0.000661238 1 
6967 1 19.9845 1.03723 -8.36855 0.00856329 1 
7009 1 19.1316 2.35568 -13.8665 6.5744e-05 1 
7011 1 16.9756 0.477206 -13.9825 8.50106e-05 1 
36993 2 39.3365 86.9158 4.72007 0.0217164 1 
8423 1 36.8761 20.8406 -6.23231 0.0189634 1 
8424 1 37.286 20.1909 -3.50174 0.467744 1 
8425 1 37.2872 18.1091 -5.45738 0.017611 1 
8426 1 35.1541 18.2622 -3.55146 0.050717 1 
8427 1 35.6039 17.5366 -0.77571 6.39967 5 
8428 1 35.5767 15.4774 -2.79114 0.438802 1 
8429 1 33.5272 15.6066 -1.01462 10.3952 5 
8430 1 36.0058 22.1728 -11.7208 0.000167445 1 
8431 1 36.4408 21.5084 -8.97178 0.00175843 1 
8432 1 36.43 19.4468 -10.9666 0.000110696 1 
8433 1 36.8603 18.7778 -8.21624 0.000849246 1 
8434 1 34.2771 19.6261 -9.09118 0.00043471 1 
8435 1 34.7116 18.9515 -6.33099 0.0045934 1 
8436 1 34.6957 16.8988 -8.33314 0.00154619 1 
8437 1 35.1291 16.2214 -5.56981 0.0219346 1 
8438 1 32.5417 17.088 -6.47154 0.00564108 1 
8439 1 33.0008 16.4364 -3.7292 0.124875 1 
8440 1 32.9449 14.3755 -5.71989 0.0241427 1 
8441 1 33.336 13.7076 -2.98173 7.00112 5 
8442 1 30.776 14.5542 -3.86817 0.15362 1 
8443 1 31.1056 14.1393 -0.980461 7.03616 5 
8444 1 31.1413 11.898 -3.02678 0.83381 1 
8445 1 28.8847 11.7186 -1.389 6.1494 5 
8446 1 29.3913 8.95982 -0.451639 8.24631 5 
8451 1 35.5717 22.8361 -14.4723 3.64686e-05 1 
8453 1 35.9982 20.1118 -13.7162 2.96079e-05 1 
8454 1 33.4091 20.9589 -14.5927 2.30427e-05 1 
8455 1 33.8424 20.2944 -11.8426 6.25455e-05 1 
8456 1 33.8343 18.2338 -13.8365 3.11965e-05 1 
8457 1 34.265 17.5684 -11.0869 0.000163901 1 
8458 1 31.6767 18.4167 -11.9656 7.9619e-05 1 
8459 1 32.1083 17.7505 -9.21908 0.000494258 1 
8460 1 32.0975 15.6913 -11.2109 0.000193454 1 
8461 1 32.5252 15.0287 -8.46602 0.00215549 1 
8462 1 29.9363 15.8709 -9.34215 0.000432802 1 
8463 1 30.3622 15.2018 -6.60624 0.0034896 1 
8464 1 30.351 13.1423 -8.58582 0.00188957 1 
8465 1 30.7567 12.4779 -5.8334 0.0405044 1 
8466 1 28.188 13.3144 -6.72194 0.0167804 1 
8467 1 28.5824 12.5914 -4.00829 0.427287 1 
8468 1 28.615 10.5644 -5.94953 0.057018 1 
8469 1 29.0409 9.77589 -3.20763 1.02825 1 
8470 1 26.4866 10.7676 -3.96309 0.725491 1 
8471 1 26.8769 8.06888 -3.16588 0.896307 5 
8472 1 24.6412 8.42372 -1.59726 5.16618 5 
8473 1 25.0361 5.81805 -0.69647 7.98402 5 
8487 1 31.2455 19.0811 -14.7133 2.88512e-05 1 
8489 1 31.6694 16.3554 -13.9569 4.73656e-05 1 
8490 1 29.0813 17.2021 -14.8319 3.49214e-05 1 
8491 1 29.5096 16.5376 -12.0854 9.87384e-05 1 
8492 1 29.5044 14.4754 -14.0737 6.37858e-05 1 
8493 1 29.929 13.8102 -11.3283 0.000220237 1 
8494 1 27.3441 14.6574 -12.1997 0.00011247 1 
8495 1 27.767 13.9909 -9.45382 0.00123039 1 
8496 1 27.7651 11.9286 -11.4375 0.000153367 1 
8497 1 28.188 11.2569 -8.69098 0.00231659 1 
8498 1 25.6077 12.1094 -9.55775 0.00298414 1 
8499 1 26.0407 11.4304 -6.79317 0.0495309 1 
8500 1 26.027 9.3824 -8.7881 0.0034641 1 
8501 1 26.4555 8.71902 -6.00722 0.0491704 1 
8502 1 23.8568 9.56894 -6.94731 0.0452577 1 
8503 1 24.2668 8.94295 -4.25511 0.507163 1 
8504 1 24.2613 6.8535 -6.15133 0.0527269 1 
8505 1 24.6641 6.2485 -3.41928 0.44926 1 
8506 1 22.0874 7.07816 -4.14239 0.337394 1 
8507 1 22.4848 6.61891 -1.19888 3.19694 5 
8508 1 22.4914 4.37846 -3.40088 0.354129 1 
8509 1 20.3512 4.25825 -1.4717 5.95891 5 
8534 1 26.9179 15.3223 -14.9478 3.36417e-05 1 
8536 1 27.3414 12.5947 -14.1862 4.15996e-05 1 
8538 1 25.1818 12.7768 -12.3117 0.000190258 1 
8539 1 25.1799 10.7147 -14.2976 3.51997e-05 1 
8540 1 25.6035 10.0496 -11.5453 0.000218316 1 
8541 1 23.0184 10.8967 -12.4262 0.000170316 1 
8542 1 23.4402 10.2315 -9.67944 0.00252552 1 
8543 1 23.4396 8.17078 -11.6558 0.000346629 1 
8544 1 23.8551 7.50757 -8.90268 0.00437977 1 
8545 1 21.2771 8.34984 -9.77057 0.0019123 1 
8546 1 21.6945 7.6894 -6.98683 0.0274254 1 
8547 1 21.6945 5.63209 -8.98959 0.00438005 1 
8548 1 22.0965 4.9866 -6.19508 0.0419485 1 
8549 1 19.5296 5.80648 -7.10569 0.0241205 1 
8550 1 19.9233 5.07344 -4.29903 0.31204 1 
8551 1 19.9691 3.09756 -6.35595 0.0814405 1 
8552 1 20.443 2.28119 -3.54596 6.59738 5 
8553 1 17.737 3.36031 -4.6344 0.694538 1 
8554 1 18.1406 2.74778 -2.09528 9.90487 5 
8555 1 18.2132 0.616679 -3.94232 6.73333 5 
8556 1 19.1258 0.136891 -1.48907 9.71424 5 
8557 1 16.1999 0.841998 -1.85442 4.22395 5 
8593 1 23.0186 8.8351 -14.4087 4.70368e-05 1 
8595 1 20.8567 9.01655 -12.5325 0.000204849 1 
8596 1 20.8592 6.95653 -14.5181 8.54987e-05 1 
8597 1 21.2799 6.29303 -11.7592 0.000544751 1 
8598 1 18.6964 7.13999 -12.6436 0.000186368 1 
8599 1 19.1158 6.47586 -9.88144 0.00165795 1 
8600 1 19.1232 4.4182 -11.876 0.000335158 1 
8601 1 19.544 3.75857 -9.11809 0.00438297 1 
8602 1 16.9509 4.60971 -10.0113 0.00382464 1 
8603 1 17.352 3.97115 -7.2873 0.056413 1 
8604 1 17.3805 1.88751 -9.25837 0.0107894 1 
8605 1 17.7822 1.24892 -6.56426 0.11246 1 
8606 1 15.1978 2.07553 -7.34707 0.0131485 1 
8607 1 15.6056 1.41965 -4.57412 0.134105 1 
8654 1 18.7011 5.07944 -14.6319 4.55804e-05 1 
8656 1 16.5358 5.26518 -12.7606 0.000235168 1 
8657 1 16.5434 3.20198 -14.7474 5.57279e-05 1 
8658 1 16.9646 2.54237 -11.9964 0.000714201 1 
8659 1 14.3787 3.38696 -12.8721 0.00019097 1 
8660 1 14.7943 2.72872 -10.1131 0.0016079 1 
8661 1 14.8114 0.663542 -12.1052 0.000352467 1 
8662 1 15.2335 0.00604478 -9.34651 0.00322341 1 
8663 1 12.6505 0.849865 -10.2238 0.00272522 1 
8664 1 13.0823 0.190056 -7.44824 0.0338007 1 
8720 1 14.3879 1.32342 -14.8608 5.49803e-05 1 
8722 1 12.2261 1.50889 -12.9867 0.000313478 1 
36989 2 41.0785 90.5297 5.32502 0.00467259 1 
10126 1 36.945 24.9406 -2.16911 1.12777 5 
10127 1 37.1164 22.3643 -0.956723 11.4045 5 
10128 1 36.0226 26.2872 -7.71387 0.00127112 1 
10129 1 36.4526 25.6201 -4.94508 0.0228933 1 
10130 1 36.4586 23.5619 -6.94558 0.021394 1 
10131 1 36.8927 22.8917 -4.1382 0.414666 1 
10132 1 34.3176 23.7391 -5.11088 0.0268051 1 
10133 1 34.7217 23.087 -2.35979 5.66683 5 
10134 1 34.7308 21.0078 -4.35536 0.0331749 1 
10135 1 35.1332 20.3329 -1.5773 6.60772 5 
10136 1 32.6083 21.2239 -2.44419 5.80268 5 
10137 1 33.0148 18.4467 -1.54586 8.3158 5 
10139 1 37.3125 29.4902 -13.1222 0.0001353 1 
10141 1 35.1501 27.616 -13.236 8.95496e-05 1 
10142 1 35.5858 26.9521 -10.476 0.000254399 1 
10143 1 35.5786 24.8953 -12.4746 0.000133757 1 
10144 1 36.0157 24.2311 -9.71589 0.00130496 1 
10145 1 33.4247 25.0797 -10.5978 0.000245761 1 
10146 1 33.866 24.4141 -7.84747 0.001811 1 
10147 1 33.8528 22.3544 -9.84724 0.00023421 1 
10148 1 34.291 21.6838 -7.09984 0.00248327 1 
10149 1 31.7012 22.5341 -7.97934 0.000985484 1 
10150 1 32.1371 21.8459 -5.23932 0.0214933 1 
10151 1 32.1294 19.8015 -7.21948 0.00487064 1 
10152 1 32.5752 19.1345 -4.43403 0.0617422 1 
10153 1 29.973 19.9769 -5.3832 0.0243902 1 
10154 1 30.4132 19.3113 -2.65488 0.180277 1 
10155 1 30.3775 17.2636 -4.63092 0.0355469 1 
10156 1 30.8968 16.6707 -1.94954 1.12758 5 
10157 1 28.2275 17.4013 -2.72738 0.306442 1 
10158 1 28.5638 14.5728 -2.11213 1.55736 5 
10168 1 32.9883 25.7421 -13.3539 6.24079e-05 1 
10170 1 33.4162 23.0197 -12.5973 5.80391e-05 1 
10171 1 30.8259 23.8664 -13.4748 4.21736e-05 1 
10172 1 31.2616 23.2033 -10.7237 0.000167876 1 
10173 1 31.2528 21.1423 -12.7197 4.90355e-05 1 
10174 1 31.6885 20.4756 -9.97138 0.000281883 1 
10175 1 29.0969 21.3254 -10.848 0.000239719 1 
10176 1 29.5334 20.6565 -8.10847 0.00199771 1 
10177 1 29.5185 18.598 -10.0956 0.000333801 1 
10178 1 29.9473 17.928 -7.35581 0.00344531 1 
10179 1 27.3615 18.7792 -8.21674 0.000721262 1 
10180 1 27.7887 18.1152 -5.46052 0.0159205 1 
10181 1 27.775 16.0526 -7.46493 0.00314898 1 
10182 1 28.1948 15.3665 -4.74859 0.0516499 1 
10183 1 25.6295 16.2237 -5.56991 0.0208433 1 
10184 1 26.0752 15.4998 -2.79661 0.427956 1 
10185 1 26.0323 13.4742 -4.7785 0.229488 1 
10186 1 26.3084 12.7489 -1.71718 5.24084 5 
10187 1 23.835 13.714 -2.97818 7.00741 5 
10188 1 24.2044 11.0661 -2.43529 6.93477 5 
10209 1 28.6627 21.9894 -13.5959 4.64867e-05 1 
10211 1 29.0877 19.2642 -12.8409 6.38263e-05 1 
10212 1 26.4993 20.1112 -13.7152 3.44293e-05 1 
10213 1 26.9311 19.4466 -10.966 0.000102701 1 
10214 1 26.9229 17.3848 -12.9583 5.36294e-05 1 
10215 1 27.3507 16.7193 -10.2103 0.000202536 1 
10216 1 24.7667 17.5661 -11.0842 0.000187752 1 
10217 1 25.197 16.8975 -8.3312 0.00170339 1 
10218 1 25.1871 14.8378 -10.3215 0.000994086 1 
10219 1 25.6131 14.1646 -7.55738 0.0148043 1 
10220 1 23.0292 15.0243 -8.45948 0.00177739 1 
10221 1 23.4486 14.3738 -5.71379 0.0221881 1 
10222 1 23.4401 12.3023 -7.71419 0.0211318 1 
10223 1 23.845 11.6634 -5.04164 0.324933 1 
10224 1 21.2629 12.475 -5.82561 0.0399093 1 
10225 1 21.6427 11.9036 -3.02225 0.818284 1 
10226 1 21.6937 9.76761 -4.99129 0.193047 1 
10227 1 22.072 9.27052 -2.08858 2.20107 5 
10228 1 19.5357 9.78363 -3.20787 1.02045 1 
10229 1 19.8856 8.95962 -0.450388 8.2249 5 
10230 1 19.9449 7.0391 -2.32527 1.5403 5 
10260 1 24.3361 18.2317 -13.8339 3.80053e-05 1 
10262 1 24.7595 15.5045 -13.074 8.1532e-05 1 
10263 1 22.1726 16.3521 -13.9522 3.29786e-05 1 
10264 1 22.6012 15.687 -11.205 0.000132417 1 
10265 1 22.5959 13.6245 -13.1913 8.60952e-05 1 
10266 1 23.0213 12.9598 -10.446 0.00103695 1 
10267 1 20.435 13.8059 -11.321 0.000175761 1 
10268 1 20.858 13.1377 -8.57748 0.0017786 1 
10269 1 20.8571 11.0757 -10.5516 0.00049569 1 
10270 1 21.2796 10.4064 -7.79156 0.00963289 1 
10271 1 18.6955 11.2547 -8.68467 0.00243733 1 
10272 1 19.121 10.5643 -5.94492 0.0575425 1 
10273 1 19.1162 8.52479 -7.90022 0.00545601 1 
10274 1 19.5406 7.81964 -5.13783 0.119502 1 
10275 1 16.9592 8.72041 -6.00485 0.0478139 1 
10276 1 17.3715 8.07243 -3.16783 0.881339 5 
10277 1 17.3481 6.03514 -5.22791 0.0840933 1 
10278 1 17.7191 5.42603 -2.35084 6.65499 5 
10279 1 15.1611 6.25085 -3.42068 0.43568 1 
10280 1 15.5331 5.81801 -0.69684 8.02844 5 
10281 1 15.5663 3.56079 -2.62115 0.439514 1 
10282 1 22.001 91.4406 -0.245159 6.10976 5 
10323 1 20.0092 14.4721 -14.068 4.20881e-05 1 
10325 1 20.4332 11.7437 -13.3031 6.51033e-05 1 
10326 1 17.8472 12.5925 -14.1814 2.67266e-05 1 
10327 1 18.272 11.926 -11.4315 0.00013606 1 
10328 1 18.2719 9.86504 -13.4142 5.15438e-05 1 
10329 1 18.6949 9.1978 -10.6597 0.000370451 1 
10330 1 16.1099 10.0489 -11.5422 0.000192954 1 
10331 1 16.5329 9.38256 -8.78486 0.0031971 1 
10332 1 16.5307 7.32632 -10.7722 0.000495693 1 
10333 1 16.9441 6.67209 -8.01009 0.00634873 1 
10334 1 14.3601 7.50889 -8.90303 0.00428533 1 
10335 1 14.7642 6.8555 -6.15262 0.0506359 1 
10336 1 14.771 4.79425 -8.12661 0.00575009 1 
10337 1 15.1583 4.14893 -5.36706 0.0435737 1 
10338 1 12.6028 4.98621 -6.20391 0.037528 1 
10339 1 12.9868 4.38002 -3.39933 0.368927 1 
10340 1 13.0411 2.25817 -5.41739 0.087261 1 
10341 1 13.506 1.57127 -2.60847 6.65388 5 
10342 1 10.9366 2.27842 -3.55131 6.53712 5 
10343 1 9.59992 0.143507 -1.48984 9.84715 5 
10393 1 15.6859 10.7138 -14.295 3.10605e-05 1 
10395 1 16.1107 7.98826 -13.5274 5.26082e-05 1 
10396 1 13.5246 8.83529 -14.4093 4.30874e-05 1 
10397 1 13.9457 8.1714 -11.6563 0.000335898 1 
10398 1 13.9504 6.11052 -13.6408 9.43921e-05 1 
10399 1 14.3673 5.44961 -10.8849 0.000713196 1 
10400 1 11.7865 6.29398 -11.7643 0.000540852 1 
10401 1 12.2008 5.6334 -8.99544 0.00395314 1 
10402 1 12.2153 3.57174 -10.9923 0.00133108 1 
10403 1 12.6299 2.91329 -8.21583 0.00967096 1 
10404 1 10.0516 3.75874 -9.12758 0.00419508 1 
10405 1 10.4665 3.09667 -6.36091 0.0798627 1 
10406 1 10.4868 1.03678 -8.37203 0.00864244 1 
10407 1 10.9133 0.382366 -5.65338 7.15772 5 
10408 1 8.27991 1.24829 -6.57043 0.117149 1 
10409 1 8.69833 0.620781 -3.94701 6.69308 5 
10470 1 11.3654 6.95711 -14.5226 8.94255e-05 1 
10472 1 11.7942 4.23263 -13.7541 0.000183586 1 
10473 1 9.20768 5.07961 -14.6407 6.1403e-05 1 
10474 1 9.63106 4.41838 -11.8861 0.000374111 1 
10475 1 9.63866 2.35481 -13.8749 7.78005e-05 1 
10476 1 10.0635 1.69528 -11.1222 0.0006429 1 
10477 1 7.47334 2.54085 -12.0121 0.000527056 1 
10478 1 7.89069 1.88582 -9.27363 0.00937199 1 
10479 1 5.74357 0.000672091 -9.36685 0.0038852 1 
10549 1 7.04977 3.20097 -14.7605 5.27579e-05 1 
10551 1 7.48217 0.474856 -13.9937 5.18213e-05 1 
10552 1 4.89272 1.32064 -14.8766 2.79025e-05 1 
10553 1 5.31899 0.659229 -12.125 0.000173217 1 
11908 1 36.0446 30.3939 -3.76087 0.0848295 1 
11909 1 36.4873 29.773 -1.04645 8.16695 5 
11910 1 36.5038 27.6591 -2.95977 0.115442 1 
11911 1 36.8109 27.1055 -0.1254 9.69861 5 
11912 1 36.89 34.2699 -11.9152 0.000670797 1 
11913 1 37.3304 33.5973 -9.16859 0.00404615 1 
11914 1 37.3205 31.5446 -11.1378 0.000557704 1 
11915 1 35.1627 31.7236 -9.26173 0.00290692 1 
11916 1 35.5961 31.0579 -6.50094 0.0182203 1 
11917 1 35.5942 29.006 -8.48121 0.00143367 1 
11918 1 36.0384 28.3395 -5.71976 0.00678057 1 
11919 1 33.4399 29.2091 -6.58912 0.00935869 1 
11920 1 33.8728 28.5464 -3.86416 0.0649688 1 
11921 1 33.8685 26.4717 -5.83019 0.00803935 1 
11922 1 34.2938 25.7821 -3.0585 0.145568 1 
11923 1 31.713 26.6527 -3.94616 0.0789648 1 
11924 1 32.1121 25.8717 -1.14523 9.88558 5 
11925 1 32.1735 23.9152 -3.29374 2.53907 5 
11926 1 30.0149 24.0171 -1.57359 10.8889 5 
11927 1 30.403 21.339 -0.790284 11.0852 5 
11929 1 36.4516 34.9401 -14.6631 0.000118839 1 
11931 1 36.883 32.213 -13.8934 0.000131125 1 
11932 1 34.2911 33.0618 -14.7732 6.97599e-05 1 
11933 1 34.7271 32.3931 -12.0186 0.000410738 1 
11934 1 34.7212 30.3374 -14.0033 8.53312e-05 1 
11935 1 35.157 29.671 -11.2441 0.000341931 1 
11936 1 32.5668 30.5201 -12.124 0.000213938 1 
11937 1 33.0033 29.8588 -9.35841 0.00110346 1 
11938 1 32.9956 27.8 -11.3556 0.000268634 1 
11939 1 33.4324 27.1399 -8.59134 0.00142499 1 
11940 1 30.843 27.9845 -9.47572 0.000538591 1 
11941 1 31.2819 27.3288 -6.70854 0.00513474 1 
11942 1 31.2715 25.2649 -8.72242 0.000941831 1 
11943 1 31.7147 24.5945 -5.98506 0.00776932 1 
11944 1 29.1133 25.4507 -6.85203 0.00923118 1 
11945 1 29.5421 24.7949 -4.14979 0.183911 1 
11946 1 29.5429 22.718 -6.12168 0.0240129 1 
11947 1 29.9513 22.0194 -3.41853 0.593062 1 
11948 1 27.3956 22.8948 -4.13838 0.412389 1 
11949 1 27.621 22.3647 -0.956917 11.4053 5 
11950 1 27.7897 20.1971 -3.50169 0.45985 1 
11951 1 25.6374 20.3388 -1.57561 6.60455 5 
11952 1 26.1004 17.5507 -0.775616 6.39594 5 
11965 1 32.1308 31.1855 -14.8837 5.50655e-05 1 
11967 1 32.5599 28.4631 -14.1161 7.36549e-05 1 
11968 1 29.9695 29.3096 -14.9979 4.69296e-05 1 
11969 1 30.4055 28.6455 -12.2387 0.000133606 1 
11970 1 30.398 26.5882 -14.2336 4.38908e-05 1 
11971 1 30.8336 25.926 -11.4769 0.000120003 1 
11972 1 28.2425 26.7707 -12.3567 0.00010185 1 
11973 1 28.6786 26.1093 -9.60012 0.000540435 1 
11974 1 28.6701 24.0501 -11.5993 0.000173689 1 
11975 1 29.1056 23.3871 -8.85116 0.00202637 1 
11976 1 26.5174 24.2317 -9.71591 0.00129292 1 
11977 1 26.9606 23.5635 -6.94574 0.0213078 1 
11978 1 26.9423 21.5093 -8.97185 0.00179311 1 
11979 1 27.3781 20.8436 -6.23273 0.0187961 1 
11980 1 24.7924 21.6855 -7.09999 0.00248383 1 
11981 1 25.2325 21.0128 -4.35545 0.0320405 1 
11982 1 25.2123 18.9541 -6.33178 0.00398561 1 
11983 1 25.6528 18.2735 -3.55402 0.0458816 1 
11984 1 23.075 19.139 -4.43446 0.0607801 1 
11985 1 23.5127 18.4552 -1.54605 8.29858 5 
11986 1 23.4999 16.4424 -3.72948 0.124895 1 
11987 1 24.0251 15.6157 -1.01751 10.4725 5 
11988 1 21.3962 16.676 -1.94892 1.12351 5 
11989 1 21.6055 14.1453 -0.979843 7.00282 5 
12013 1 28.2355 24.7125 -14.3525 4.11556e-05 1 
12015 1 26.0802 24.8954 -12.4744 0.000132749 1 
12016 1 26.0731 22.8358 -14.4719 3.87008e-05 1 
12017 1 26.5073 22.1729 -11.7205 0.00017873 1 
12018 1 23.9178 23.0193 -12.5969 6.23417e-05 1 
12019 1 24.3543 22.3546 -9.84705 0.000243272 1 
12020 1 24.3439 20.2934 -11.8415 6.01136e-05 1 
12021 1 24.7784 19.626 -9.09071 0.000355159 1 
12022 1 22.1902 20.475 -9.97059 0.000247122 1 
12023 1 22.6305 19.8025 -7.21934 0.00468999 1 
12024 1 22.6105 17.7487 -9.21672 0.000504474 1 
12025 1 23.043 17.0884 -6.47012 0.00589936 1 
12026 1 20.449 17.9278 -7.35459 0.00343074 1 
12027 1 20.8777 17.266 -4.63046 0.0357694 1 
12028 1 20.8654 15.2005 -6.60296 0.00374244 1 
12029 1 21.2763 14.5573 -3.86629 0.153018 1 
12030 1 18.6957 15.3684 -4.74787 0.0523764 1 
12031 1 19.0637 14.5763 -2.11105 1.55349 5 
12032 1 19.0827 12.5949 -4.0065 0.42741 1 
12033 1 19.3846 11.7223 -1.38666 6.12729 5 
12034 1 16.8075 12.7534 -1.71826 5.23973 5 
12069 1 23.9107 20.9579 -14.5915 2.43651e-05 1 
12071 1 21.7548 21.1412 -12.7186 4.67945e-05 1 
12072 1 21.7478 19.0792 -14.7109 2.60694e-05 1 
12073 1 22.1791 18.4145 -11.963 7.38784e-05 1 
12074 1 19.5904 19.2625 -12.839 5.66167e-05 1 
12075 1 20.021 18.5966 -10.0939 0.000313516 1 
12076 1 20.0134 16.5348 -12.0816 7.95111e-05 1 
12077 1 20.4402 15.8681 -9.33815 0.000414754 1 
12078 1 17.8541 16.7177 -10.2082 0.000184517 1 
12079 1 18.2775 16.052 -7.46333 0.00312608 1 
12080 1 18.2721 13.9887 -9.44984 0.00121282 1 
12081 1 18.6919 13.3136 -6.71868 0.0170598 1 
12082 1 16.1157 14.1642 -7.55625 0.0143699 1 
12083 1 16.5327 13.4757 -4.77823 0.227147 1 
12084 1 16.5437 11.4307 -6.79118 0.0479082 1 
12085 1 16.9847 10.7709 -3.96352 0.708589 1 
12086 1 14.3438 11.6642 -5.04115 0.323019 1 
12087 1 14.7027 11.0685 -2.43397 6.89876 5 
12088 1 14.7644 8.94578 -4.25504 0.494431 1 
12089 1 15.1384 8.42667 -1.59529 5.05283 5 
12090 1 12.5689 9.27403 -2.09347 2.18956 5 
12091 1 12.988 6.62497 -1.20859 3.1928 5 
12135 1 19.5848 17.1999 -14.8287 2.56996e-05 1 
12137 1 17.4265 17.3831 -12.9561 4.36542e-05 1 
12138 1 17.4223 15.3203 -14.9446 2.3018e-05 1 
12139 1 17.8491 14.6551 -12.1959 8.82599e-05 1 
12140 1 15.2636 15.5033 -13.0724 7.31171e-05 1 
12141 1 15.6909 14.8367 -10.3199 0.000935732 1 
12142 1 15.6871 12.7757 -12.3093 0.000166516 1 
12143 1 16.1126 12.1086 -9.55522 0.00276871 1 
12144 1 13.5251 12.9597 -10.4457 0.00102956 1 
12145 1 13.9421 12.3025 -7.7137 0.0211651 1 
12146 1 13.9446 10.2321 -9.67923 0.002525 1 
12147 1 14.3587 9.57031 -6.94689 0.0453617 1 
12148 1 11.7813 10.4077 -7.79315 0.0100909 1 
12149 1 12.1888 9.76897 -4.99089 0.19579 1 
12150 1 12.1964 7.69214 -6.99063 0.0269922 1 
12151 1 12.5891 7.07946 -4.15129 0.330293 1 
12152 1 10.0374 7.82264 -5.14191 0.114758 1 
12153 1 10.4551 7.04095 -2.3333 1.78745 5 
12154 1 10.4375 5.07372 -4.32491 0.276818 1 
12155 1 10.836 4.24985 -1.47673 5.98451 5 
12156 1 8.26337 5.40961 -2.4358 6.8677 5 
12157 1 8.62712 2.74072 -2.10531 9.71281 5 
12214 1 13.1003 13.6242 -13.1911 7.83346e-05 1 
12216 1 13.5237 10.8968 -12.4262 0.000160946 1 
12217 1 10.9377 11.7444 -13.3055 6.13951e-05 1 
12218 1 11.361 11.0767 -10.5539 0.000507238 1 
12219 1 11.3621 9.01762 -12.5362 0.000215541 1 
12220 1 11.7819 8.35154 -9.77455 0.00197877 1 
12221 1 9.19919 9.19984 -10.6668 0.000393625 1 
12222 1 9.61854 8.52728 -7.90735 0.00555537 1 
12223 1 9.62213 6.4778 -9.89227 0.00146704 1 
12224 1 10.037 5.80944 -7.11977 0.020079 1 
12225 1 7.44797 6.67592 -8.03004 0.00559844 1 
12226 1 7.85613 6.03988 -5.263 0.064284 1 
12227 1 7.86324 3.9711 -7.30469 0.0466779 1 
12228 1 8.22416 3.36317 -4.63961 0.662191 1 
12229 1 5.67435 4.14817 -5.4053 0.0433566 1 
12230 1 6.02932 3.5808 -2.59266 2.23146 5 
12231 1 6.09368 1.42878 -4.57158 0.205253 1 
12232 1 6.65718 0.877153 -1.85365 4.37505 5 
12233 1 3.91702 1.64592 -2.5415 9.36346 5 
12234 1 12.5042 91.4594 -0.232429 6.06167 5 
12300 1 8.77651 9.86656 -13.4206 6.26914e-05 1 
12302 1 9.20261 7.14133 -12.6527 0.000200926 1 
12303 1 6.61554 7.9901 -13.5398 7.25798e-05 1 
12304 1 7.03637 7.32888 -10.7879 0.000556526 1 
12305 1 7.04299 5.26567 -12.7762 0.000207483 1 
12306 1 7.46053 4.61006 -10.0298 0.00303157 1 
12307 1 4.87487 5.45087 -10.9116 0.000368424 1 
12308 1 5.2838 4.79629 -8.1606 0.00321383 1 
12309 1 5.30594 2.72607 -10.1428 0.00100084 1 
12310 1 5.71516 2.07172 -7.38103 0.0153957 1 
12311 1 3.14656 2.90694 -8.27638 0.00937803 1 
12312 1 3.57347 2.23587 -5.50749 0.135872 1 
12313 1 3.59634 0.175385 -7.49016 0.0554726 1 
12314 1 1.43024 0.370378 -5.72126 6.9171 5 
12391 1 4.45489 6.11158 -13.6602 6.49965e-05 1 
12393 1 4.88542 3.38538 -12.8946 9.97902e-05 1 
12394 1 2.2959 4.23172 -13.7788 0.000139036 1 
12395 1 2.72114 3.56904 -11.0318 0.00114821 1 
12396 1 2.72965 1.50426 -13.0114 0.000216522 1 
12397 1 3.15935 0.841245 -10.2582 0.00227914 1 
12398 1 0.562675 1.68815 -11.1571 0.00151895 1 
12399 1 0.993302 1.02394 -8.42705 0.0094449 1 
12485 1 38.1284 2.35172 -13.8956 0.000277546 1 
13729 1 36.6424 34.6588 -0.40588 7.83566 5 
13730 1 36.9065 38.3916 -7.98396 0.0259128 1 
13731 1 37.3403 37.6978 -5.31422 6.52601 5 
13732 1 37.3403 35.6466 -7.22711 0.0305392 1 
13733 1 35.1439 35.8337 -5.41422 0.236466 1 
13734 1 35.578 35.159 -2.8183 8.02005 5 
13735 1 35.5908 33.1079 -4.57923 0.2636 1 
13736 1 36.0877 32.4875 -1.9476 7.04945 5 
13737 1 33.3279 33.4048 -2.37797 3.91789 5 
13738 1 33.9069 30.7059 -1.8112 4.09759 5 
13739 1 36.0195 39.733 -13.4398 0.00027083 1 
13740 1 36.4602 39.0672 -10.7005 0.00249219 1 
13741 1 36.4562 37.0018 -12.6832 0.000523198 1 
13742 1 36.8972 36.3296 -9.94828 0.00353826 1 
13743 1 34.2984 37.1835 -10.8183 0.00244635 1 
13744 1 34.7304 36.5124 -8.09588 0.026326 1 
13745 1 34.7313 34.4493 -10.046 0.00351838 1 
13746 1 35.1639 33.7745 -7.30631 0.0328118 1 
13747 1 32.5828 34.6367 -8.1334 0.0213981 1 
13748 1 33.0107 33.9924 -5.30901 0.189637 1 
13749 1 33.0103 31.9227 -7.35241 0.01544 1 
13750 1 33.4271 31.2921 -4.53919 0.130088 1 
13751 1 30.8797 32.1184 -5.46772 0.0494182 1 
13752 1 31.2403 31.4714 -2.58231 7.72279 5 
13753 1 31.2934 29.4118 -4.70695 0.068892 1 
13754 1 31.6033 28.6778 -1.99998 7.26124 2 
13755 1 29.1246 29.5758 -2.84072 5.73811 5 
13756 1 29.5402 26.8034 -1.952 5.61361 5 
13757 1 27.3144 27.107 -0.125764 9.68517 5 
13766 1 33.8617 37.8517 -13.5578 0.000254228 1 
13768 1 34.2958 35.1208 -12.7921 0.000365754 1 
13769 1 31.7051 35.9703 -13.6672 0.000219377 1 
13770 1 32.144 35.3015 -10.9099 0.00216555 1 
13771 1 32.1373 33.2431 -12.8963 0.000270859 1 
13772 1 32.5739 32.5777 -10.1319 0.00202177 1 
13773 1 29.9865 33.4226 -11.0244 0.000748308 1 
13774 1 30.4281 32.7604 -8.25505 0.00343297 1 
13775 1 30.4148 30.7025 -10.2469 0.00031431 1 
13776 1 30.8556 30.0471 -7.47913 0.00234046 1 
13777 1 28.2609 30.8802 -8.37826 0.00169174 1 
13778 1 28.7069 30.2181 -5.62572 0.0123389 1 
13779 1 28.6915 28.1631 -7.59694 0.00288177 1 
13780 1 29.1377 27.5036 -4.81991 0.039786 1 
13781 1 26.5404 28.3405 -5.71976 0.00674389 1 
13782 1 27.0062 27.6604 -2.95977 0.115023 1 
13783 1 26.955 25.6217 -4.94497 0.0228812 1 
13784 1 27.4478 24.9421 -2.16855 1.1269 5 
13785 1 24.7958 25.7844 -3.05848 0.145074 1 
13786 1 25.2244 23.0906 -2.3593 5.66287 5 
13804 1 29.5465 34.091 -13.7809 0.000149156 1 
13806 1 29.9769 31.3663 -13.0091 0.000112058 1 
13807 1 27.3849 32.2131 -13.8933 0.00013091 1 
13808 1 27.8224 31.5448 -11.1378 0.000556712 1 
13809 1 27.8143 29.4904 -13.1222 0.000134572 1 
13810 1 28.2513 28.826 -10.3615 0.000445789 1 
13811 1 25.6588 29.6712 -11.2441 0.000342692 1 
13812 1 26.0961 29.0065 -8.48124 0.00143429 1 