ITEM: TIMESTEP
0
ITEM: NUMBER OF ATOMS
8904
ITEM: BOX BOUNDS xy xz yz pp pp ss
-2.0622642721999998e+01 7.8740999486000007e+01 -2.0622642721999998e+01
0.0000000000000000e+00 6.3272281507000002e+01 0.0000000000000000e+00
-1.0558895308206708e+02 1.1093694013075313e+02 0.0000000000000000e+00
ITEM: ATOMS id type x y z c_csym c_cna 
1 1 -0.429971 17.1862 -0.602021 9.34561 5 
2 1 -0.71442 11.0473 -1.47325 6.85653 5 
3 1 -1.71412 8.31227 -0.806022 5.7812 5 
5 1 -1.10165 4.67353 -2.26382 0.30776 1 
62888 2 11.0022 8.06022 2.47436 5.59418 5 
8 1 -0.440678 48.4667 -0.403249 8.13916 5 
9 1 -0.698047 42.1554 -1.29482 7.03752 5 
10 1 -1.80807 39.2678 -0.33482 7.50182 5 
11 1 -1.90742 36.3352 0.365934 9.33367 5 
12 1 -1.00337 35.7807 -2.10019 6.59823 5 
13 1 -2.00677 33.4666 -0.32642 8.78634 5 
14 1 -0.431717 32.1255 -3.61409 1.30801 5 
15 1 -1.39083 29.4799 -2.95207 6.57319 5 
16 1 -2.739 30.6629 -0.661076 3.63923 5 
17 1 -0.935619 28.6133 0.891281 8.74654 5 
18 1 -3.77861 28.1385 -0.391522 8.55436 5 
19 1 -0.788741 25.7384 -4.63464 0.0203408 1 
20 1 -2.33312 26.8475 -2.52335 7.09551 5 
21 1 -0.512223 24.6836 -1.99028 0.751395 5 
22 1 -2.04008 26.0584 0.0810534 4.97703 5 
23 1 -3.29106 24.0968 -1.64341 6.70296 5 
24 1 -1.74479 23.0977 -4.01028 0.123403 1 
25 1 -1.38861 21.8723 -1.44866 4.95434 5 
26 1 -2.63509 20.4056 -3.55827 0.126956 1 
27 1 -4.1566 21.3345 -1.50064 3.89934 5 
28 1 -2.32452 19.26 -0.885241 8.70264 5 
29 1 -5.27084 18.765 -0.869853 6.30131 5 
30 1 -1.08675 19.4119 -5.67026 0.0190118 1 
31 1 -0.786387 18.3293 -3.09658 0.162334 1 
32 1 -2.04084 16.7444 -5.06293 0.00818521 1 
33 1 -3.61737 17.7586 -2.91124 0.144062 1 
34 1 -1.76661 15.6682 -2.42664 6.81837 5 
35 1 -3.16986 16.5139 -0.0630399 9.84868 5 
36 1 -4.53448 15.1167 -2.2889 0.320739 1 
38 1 -0.466557 15.7261 -7.21294 0.00216647 1 
39 1 -1.40948 13.0942 -6.60182 0.00648326 1 
40 1 -2.98879 14.1037 -4.41139 0.0770484 1 
41 1 -1.11606 12.0594 -3.9711 0.162905 1 
42 1 -2.65043 13.0971 -1.56102 6.0067 5 
64796 2 0.699989 24.1358 2.48592 7.29237 5 
64384 2 6.65274 40.6413 2.27617 3.1596 5 
47 1 -0.76639 9.4218 -8.13987 0.00047299 1 
48 1 -2.34425 10.4637 -5.98519 0.00805957 1 
49 1 -0.446733 8.37489 -5.49786 0.00917868 1 
50 1 -2.04287 9.40972 -3.3558 0.112193 1 
59 1 -1.69401 6.78599 -7.53669 0.000650431 1 
60 1 -1.38023 5.72727 -4.90019 0.0120712 1 
40569 2 -8.99553 29.151 2.47436 5.59418 5 
45464 2 -19.3068 60.7871 2.47436 5.59418 5 
75 1 -1.41132 60.5108 -3.09658 0.162334 1 
76 1 -2.94945 61.4415 -0.885241 8.70264 5 
77 1 -1.0549 59.3678 -0.602021 9.34561 5 
78 1 -3.79479 58.6954 -0.0630399 9.84868 5 
79 1 -0.787303 56.8349 -4.58291 0.0284021 1 
80 1 -2.39154 57.8497 -2.42664 6.81837 5 
81 1 -0.506931 55.8538 -1.87424 5.99198 5 
82 1 -3.27536 55.2786 -1.56102 6.0067 5 
83 1 -1.74099 54.241 -3.9711 0.162905 1 
84 1 -1.33935 53.2288 -1.47325 6.85653 5 
85 1 -2.6678 51.5912 -3.3558 0.112193 1 
86 1 -4.18429 52.6466 -1.00409 5.92672 5 
87 1 -2.33905 50.4938 -0.806022 5.7812 5 
88 1 -5.25321 50.0467 -0.618086 4.00223 5 
89 1 -1.07166 50.5564 -5.49786 0.00917868 1 
90 1 -0.742424 49.5033 -2.91068 0.135347 1 
91 1 -2.00516 47.9088 -4.90019 0.0120712 1 
92 1 -3.60587 48.9233 -2.71354 0.275787 1 
93 1 -1.72658 46.855 -2.26382 0.30776 1 
94 1 -3.21926 48.0513 0.239251 7.93137 5 
95 1 -4.47615 46.3134 -2.1194 0.347921 1 
96 1 -6.00651 47.4801 -0.196794 10.269 5 
97 1 -0.436066 46.8595 -7.04233 0.00317712 1 
98 1 -1.367 44.2334 -6.43064 0.00445197 1 
99 1 -2.93643 45.261 -4.27015 0.0338453 1 
100 1 -1.06107 43.1972 -3.81614 0.0908179 1 
101 1 -2.69756 44.1694 -1.55322 1.35027 5 
102 1 -3.88466 42.6436 -3.68141 0.0549818 1 
103 1 -5.49174 43.7359 -1.58041 1.87209 5 
104 1 -3.42837 41.5292 -1.01091 5.15126 5 
105 1 -6.43896 41.0784 -1.06592 6.86951 5 
106 1 -0.745632 40.5457 -7.97103 0.000750982 1 
107 1 -2.30574 41.5878 -5.81758 0.00561257 1 
108 1 -0.415725 39.505 -5.31283 0.0148284 1 
109 1 -1.98572 40.5173 -3.17651 0.167669 1 
110 1 -3.24096 38.9502 -5.19 0.0323283 1 
111 1 -4.81685 40.0501 -3.09982 0.149522 1 
112 1 -2.9153 37.9001 -2.4901 1.09608 5 
113 1 -4.72176 39.0844 -0.452569 9.07101 5 
114 1 -5.68821 37.4202 -2.61594 7.05611 5 
115 1 -7.60983 38.5352 0.692772 7.38535 5 
116 1 -5.75083 36.5701 -0.096665 13.0185 5 
117 1 -1.68008 37.9115 -7.35623 0.00211518 1 
118 1 -1.35336 36.8655 -4.69821 0.0183256 1 
119 1 -2.60711 35.2664 -6.73613 0.0246184 1 
120 1 -4.1437 36.322 -4.60891 0.0786916 1 
121 1 -2.30828 34.1958 -4.03172 6.66992 5 
122 1 -3.77816 35.3394 -1.76664 2.97198 5 
123 1 -5.07197 33.7316 -4.02858 0.174886 1 
124 1 -6.6483 34.747 -1.89082 1.88431 5 
125 1 -4.58889 32.7428 -1.52646 8.33487 5 
126 1 -7.42508 32.2406 -1.03791 3.1066 5 
127 1 -1.06821 34.2253 -8.92865 0.00128854 1 
128 1 -0.756906 33.1644 -6.27868 0.00884118 1 
129 1 -2.00548 31.5819 -8.33437 0.00157042 1 
130 1 -3.54716 32.6376 -6.17926 0.023183 1 
131 1 -1.68076 30.5112 -5.67779 0.0255468 1 
132 1 -3.18674 31.5767 -3.54189 1.74126 5 
133 1 -4.49707 30.0213 -5.56694 0.0145151 1 
134 1 -6.04148 31.0855 -3.38805 0.151631 1 
135 1 -4.18186 29.013 -2.93949 0.262285 1 
136 1 -5.67986 30.0855 -0.767272 5.81568 5 
137 1 -7.02241 28.415 -2.6347 6.21077 5 
138 1 -8.55831 29.6587 -0.468865 2.60164 5 
139 1 -5.03011 25.6495 0.140835 9.00139 5 
141 1 -0.456197 30.5334 -10.5088 0.000255262 1 
142 1 -1.39827 27.8932 -9.91136 0.000182111 1 
143 1 -2.95211 28.9483 -7.73958 0.00233375 1 
144 1 -1.09302 26.8213 -7.27201 0.00144271 1 
145 1 -2.64304 27.8943 -5.11094 0.0361478 1 
146 1 -3.89566 26.305 -7.12859 0.0092872 1 
147 1 -5.45 27.3967 -4.97229 0.0724274 1 
148 1 -3.57656 25.2262 -4.4678 0.132595 1 
149 1 -5.11387 26.3638 -2.42867 6.64392 5 
150 1 -6.38504 24.7238 -4.42125 0.0601311 1 
151 1 -7.8747 25.7583 -2.17814 5.75813 5 
152 1 -6.11614 23.7125 -1.8368 1.24143 5 
154 1 -0.778067 24.2052 -11.487 0.000177419 1 
155 1 -2.34053 25.2542 -9.31419 0.000701471 1 
156 1 -0.471671 23.1355 -8.85063 0.000930512 1 
157 1 -2.03504 24.1812 -6.67285 0.00522227 1 
158 1 -3.27868 22.6131 -8.73283 0.00109991 1 
159 1 -4.83355 23.6678 -6.56496 0.00647241 1 
160 1 -2.97035 21.5361 -6.1183 0.016784 1 
161 1 -4.52043 22.6025 -3.95039 0.188136 1 
162 1 -5.78238 21.0215 -5.99343 0.0167253 1 
62867 2 13.7202 15.3329 2.51523 0.690513 1 
164 1 -5.47829 19.9048 -3.4546 0.149198 1 
61500 2 16.9641 9.00518 2.27617 3.1596 5 
170 1 -1.71554 21.5645 -10.8979 0.000263878 1 
171 1 -1.40596 20.492 -8.27465 0.00201469 1 
172 1 -2.65369 18.9193 -10.3088 0.000346923 1 
173 1 -4.21984 19.9636 -8.15148 0.00182605 1 
174 1 -2.34411 17.838 -7.68785 0.00192224 1 
175 1 -3.90988 18.8613 -5.54756 0.0131658 1 
176 1 -5.16402 17.3116 -7.55982 0.00306642 1 
178 1 -4.86189 16.2175 -4.93652 0.010696 1 
186 1 -1.08664 17.8753 -12.4654 0.000146807 1 
187 1 -0.775737 16.8026 -9.83828 0.000533726 1 
188 1 -2.02429 15.2333 -11.8669 0.000188731 1 
189 1 -3.59314 16.2733 -9.71029 0.000518167 1 
190 1 -1.71525 14.1619 -9.2348 0.000748646 1 
191 1 -3.28746 15.1907 -7.07285 0.00348106 1 
9294 1 21.728 53.6993 -3.78811 0.0618148 1 
63522 2 13.0953 57.5144 2.51523 0.690513 1 
204 1 -0.456721 14.19 -14.0206 6.3397e-05 1 
205 1 -1.39306 11.5508 -13.4186 5.60797e-05 1 
206 1 -2.96149 12.5941 -11.2641 0.000177096 1 
207 1 -1.07983 10.4843 -10.7805 0.000109092 1 
208 1 -2.65158 11.5259 -8.62688 0.00067176 1 
223 1 -0.763135 7.86826 -14.9703 2.19187e-05 1 
224 1 -2.32794 8.91252 -12.8166 4.80777e-05 1 
225 1 -0.447339 6.80302 -12.3293 3.54889e-05 1 
226 1 -2.01262 7.84741 -10.1771 0.000106497 1 
243 1 -1.69812 5.22969 -14.368 2.89628e-05 1 
7900 1 24.8339 44.1972 -6.4587 0.00724246 1 
257 1 -2.03088 62.6735 -8.27465 0.00201469 1 
258 1 -1.71167 61.5935 -5.67026 0.0190118 1 
259 1 -3.26002 62.5871 -3.55827 0.126956 1 
260 1 -4.53481 61.0428 -5.54756 0.0131658 1 
261 1 -6.10322 62.0863 -3.4546 0.149198 1 
262 1 -4.2423 59.9402 -2.91124 0.144062 1 
263 1 -5.89577 60.9465 -0.869853 6.30131 5 
264 1 -7.0802 59.4438 -2.8515 0.264342 1 
265 1 -8.69721 60.523 -0.464073 8.09789 5 
266 1 -6.7015 58.4369 -0.352307 10.7311 5 
267 1 -9.56414 57.7618 0.0962108 9.30605 5 
268 1 -0.463916 61.6292 -10.4313 0.0003652 1 
269 1 -1.40067 58.9841 -9.83828 0.000533725 1 
270 1 -2.96904 60.0196 -7.68785 0.00192224 1 
271 1 -1.09149 57.9076 -7.21294 0.00216647 1 
272 1 -2.66577 58.9259 -5.06293 0.00818521 1 
273 1 -3.91239 57.3722 -7.07285 0.00348106 1 
274 1 -5.48681 58.399 -4.93652 0.010696 1 
275 1 -3.61372 56.2852 -4.41139 0.0770484 1 
276 1 -5.15941 57.2983 -2.2889 0.320739 1 
277 1 -6.43241 55.7762 -4.31348 0.0260855 1 
278 1 -8.02126 56.7896 -2.13604 6.63533 5 
279 1 -6.17056 54.6782 -1.67296 5.53111 5 
280 1 -9.00487 54.2139 -1.33359 6.14872 5 
281 1 -0.769046 55.3031 -11.3853 0.000127089 1 
282 1 -2.34018 56.3434 -9.2348 0.000748646 1 
283 1 -0.45696 54.2367 -8.74763 0.000348837 1 
284 1 -2.03441 55.2757 -6.60182 0.00648326 1 
285 1 -3.2765 53.7074 -8.62688 0.00067176 1 
286 1 -4.85016 54.7426 -6.4587 0.00724246 1 
287 1 -2.96918 52.6453 -5.98519 0.00805957 1 
288 1 -4.53017 53.6975 -3.76309 0.129801 1 
289 1 -5.77726 52.1272 -5.8684 0.0109762 1 
290 1 -7.385 53.1681 -3.73887 0.151983 1 
291 1 -5.44199 51.0643 -3.268 0.122775 1 
292 1 -7.02037 52.1139 -1.24886 8.63911 5 
293 1 -8.30511 50.4963 -3.16416 0.0645645 1 
294 1 -9.86668 51.4824 -0.892163 5.30465 5 
295 1 -7.99891 49.3701 -0.490307 5.19807 5 
296 1 -10.7413 48.8224 -0.602021 9.34561 5 
297 1 -1.70476 52.6659 -10.7805 0.000109092 1 
298 1 -1.39132 51.6033 -8.13987 0.00047299 1 
299 1 -2.63755 50.0289 -10.1771 0.000106497 1 
300 1 -4.20665 51.0724 -8.02344 0.000754928 1 
301 1 -2.31893 48.9675 -7.53669 0.000650431 1 
302 1 -3.88619 50.0011 -5.38385 0.0115822 1 
303 1 -5.13435 48.4347 -7.43432 0.000969032 1 
304 1 -6.70654 49.4838 -5.30629 0.0100268 1 
305 1 -4.81713 47.3689 -4.79944 0.0128737 1 
306 1 -6.40897 48.4493 -2.72019 0.169389 1 
307 1 -7.64333 46.8269 -4.7112 0.0179312 1 
308 1 -9.2012 47.8333 -2.5916 0.24406 1 
309 1 -7.30674 45.7829 -2.11739 1.82904 5 
310 1 -8.67272 46.4643 0.15294 8.64259 5 
311 1 -10.1933 45.3084 -1.87424 5.99198 5 
312 1 -1.07227 48.9845 -12.3293 3.54889e-05 1 
313 1 -0.754926 47.9209 -9.68695 9.77546e-05 1 
314 1 -2.00621 46.3462 -11.7257 6.20383e-05 1 
315 1 -3.56861 47.3905 -9.57576 0.00022202 1 
316 1 -1.68816 45.2837 -9.08062 0.000275752 1 
317 1 -3.24982 46.3271 -6.931 0.0017707 1 
318 1 -4.50266 44.7533 -8.97442 0.00043927 1 
319 1 -6.07062 45.7976 -6.84067 0.0036934 1 
320 1 -4.18472 43.6949 -6.33173 0.00276119 1 
321 1 -5.74963 44.753 -4.21592 0.0452141 1 
322 1 -7.01716 43.1695 -6.22453 0.008226 1 
323 1 -8.61445 44.1982 -4.02818 0.172428 1 
324 1 -6.72917 42.1576 -3.58779 0.159836 1 
325 1 -8.28181 43.2974 -1.14302 7.47074 5 
326 1 -9.48167 41.5917 -3.44711 0.172991 1 
327 1 -11.0257 42.6834 -1.47325 6.85653 5 
328 1 -9.20963 40.5572 -0.719911 3.14666 5 
329 1 -12.0254 39.9484 -0.806022 5.7812 5 
330 1 -0.44535 45.3023 -13.8791 4.24464e-05 1 
331 1 -1.38143 42.6648 -13.2743 6.77378e-05 1 
332 1 -2.94087 43.7084 -11.1202 0.000165642 1 
333 1 -1.06428 41.603 -10.6246 0.00011712 1 
334 1 -2.62177 42.6477 -8.47027 0.000591561 1 
335 1 -3.87611 41.0724 -10.5125 0.000344086 1 
336 1 -5.43995 42.1198 -8.36754 0.000839373 1 
337 1 -3.55756 40.0126 -7.85739 0.00278594 1 
338 1 -5.13117 41.0742 -5.72307 0.00823473 1 
339 1 -6.37474 39.4877 -7.7696 0.00350016 1 
340 1 -7.94461 40.5297 -5.60968 0.00923741 1 
341 1 -6.0579 38.4432 -5.1603 0.0541584 1 
342 1 -7.64084 39.4687 -2.96144 1.20856 5 
343 1 -8.86859 37.8883 -5.01781 0.0307599 1 
344 1 -10.4288 38.9579 -2.91068 0.135347 1 
345 1 -8.45094 36.8741 -2.29391 5.95639 5 
346 1 -10.1271 37.9213 -0.403249 8.13916 5 
347 1 -11.413 36.3097 -2.26382 0.30776 1 
349 1 -0.760213 38.9839 -14.83 6.62753e-05 1 
350 1 -2.31786 40.0282 -12.6687 0.00011502 1 
351 1 -0.445298 37.9224 -12.181 0.000207234 1 
352 1 -2.00037 38.9673 -10.0161 0.000373722 1 
353 1 -3.25385 37.3917 -12.0641 0.000320432 1 
354 1 -4.81044 38.4374 -9.90994 0.000500856 1 
355 1 -2.93335 36.3304 -9.40854 0.00246805 1 
356 1 -4.48431 37.3763 -7.26285 0.00522235 1 
357 1 -5.74623 35.8017 -9.30973 0.000895853 1 
358 1 -7.30658 36.8453 -7.16575 0.00278651 1 
359 1 -5.4217 34.7468 -6.66815 0.0101914 1 
360 1 -6.983 35.7845 -4.53231 0.0507882 1 
361 1 -8.24357 34.209 -6.5334 0.00669584 1 
362 1 -9.79305 35.2912 -4.37155 0.0538361 1 
363 1 -7.91426 33.1561 -3.86326 0.118296 1 
364 1 -9.49972 34.2472 -1.78003 0.247761 1 
4545 1 32.4499 20.9344 -1.22752 1.98969 5 
369 1 -1.6978 36.3469 -14.2279 9.31808e-05 1 
370 1 -1.383 35.2856 -11.5794 0.000301893 1 
371 1 -2.6358 33.7093 -13.6275 0.000106439 1 
372 1 -4.1908 34.7561 -11.4641 0.000363273 1 
373 1 -2.32148 32.647 -10.9811 0.000314414 1 
374 1 -3.87106 33.6979 -8.81675 0.00256521 1 
375 1 -5.13042 32.1194 -10.8611 0.000209921 1 
376 1 -6.68555 33.1651 -8.69702 0.000904498 1 
377 1 -4.8155 31.0618 -8.21403 0.00140491 1 
378 1 -6.35942 32.1198 -6.03785 0.00602692 1 
379 1 -7.62052 30.5298 -8.07637 0.00490878 1 
380 1 -9.17111 31.5791 -5.92593 0.00825473 1 
381 1 -7.2999 29.4742 -5.39291 0.0510519 1 
382 1 -8.80519 30.5585 -3.23952 0.181295 1 
392 1 -0.766767 31.5988 -13.151 9.28299e-05 1 
394 1 -3.57516 31.0714 -13.0274 8.10389e-05 1 
395 1 -1.70685 28.9595 -12.5528 6.54647e-05 1 
396 1 -3.26298 30.0089 -10.3828 0.000191579 1 
397 1 -4.51531 28.4336 -12.4267 0.000100599 1 
398 1 -6.07115 29.483 -10.2566 0.000355494 1 
399 1 -4.20476 27.3707 -9.78023 0.000599622 1 
400 1 -5.758 28.4289 -7.60752 0.0041167 1 
401 1 -7.01159 26.8472 -9.65706 0.000456102 1 
402 1 -8.56072 27.8999 -7.47675 0.00337345 1 
403 1 -6.69972 25.7899 -7.01963 0.0052611 1 
404 1 -8.24222 26.8459 -4.8213 0.0411384 1 
415 1 -2.95675 27.3856 -14.5959 4.33869e-05 1 
416 1 -1.08608 25.2723 -14.124 5.26893e-05 1 
417 1 -2.64746 26.3209 -11.9548 0.000131768 1 
418 1 -3.8961 24.747 -13.9992 6.15389e-05 1 
419 1 -5.45555 25.7964 -11.8296 0.000154293 1 
420 1 -3.58711 23.6817 -11.3625 0.000204209 1 
421 1 -5.1456 24.7339 -9.19121 0.000855388 1 
422 1 -6.39608 23.1567 -11.2355 0.000224746 1 
6757 1 28.623 32.6519 -3.81614 0.0908179 1 
424 1 -6.08857 22.0906 -8.60452 0.0010772 1 
5676 1 32.0393 22.0631 -3.78811 0.0618148 1 
441 1 -2.02454 22.6327 -13.5295 7.24774e-05 1 
443 1 -4.83538 22.1071 -13.4045 8.76689e-05 1 
444 1 -2.96278 19.9912 -12.9362 0.000103238 1 
445 1 -4.52703 21.0392 -10.7729 0.000304635 1 
446 1 -5.77482 19.4653 -12.8098 0.00011557 1 
448 1 -5.46814 18.3939 -10.1803 0.000524531 1 
465 1 -4.21067 18.418 -14.973 4.37051e-05 1 
466 1 -2.33494 16.3033 -14.4992 6.3041e-05 1 
467 1 -3.90135 17.3483 -12.3406 0.000114213 1 
5517 1 28.9861 31.61 -1.29482 7.03752 5 
4763 1 35.1453 12.5611 -6.4587 0.00724246 1 
493 1 -3.27211 13.663 -13.8995 6.65953e-05 1 
570 1 -10.3464 62.7196 -1.02253 8.517 5 
571 1 -13.0503 62.299 -0.661076 3.63923 5 
572 1 -4.84477 62.1451 -8.15148 0.00182605 1 
573 1 -7.65925 61.6247 -8.01339 0.00359566 1 
574 1 -9.2166 62.6787 -5.81294 0.0146973 1 
575 1 -7.36592 60.5356 -5.41582 0.0289102 1 
576 1 -8.9129 61.5675 -3.19497 0.0964622 1 
577 1 -10.1669 60.0252 -5.21453 0.0217622 1 
578 1 -11.7022 61.116 -2.95207 6.57319 5 
579 1 -9.88385 58.963 -2.53187 6.13786 5 
580 1 -11.2469 60.2494 0.891281 8.74654 5 
581 1 -12.6444 58.4836 -2.52335 7.09551 5 
582 1 -14.0899 59.7746 -0.391522 8.55436 5 
583 1 -12.3514 57.6945 0.0810534 4.97703 5 
584 1 -0.774743 62.699 -13.0594 9.83989e-05 1 
586 1 -3.58771 62.1727 -12.9362 0.000103238 1 
587 1 -1.71157 60.0568 -12.4654 0.000146807 1 
588 1 -3.27862 61.1008 -10.3088 0.000346923 1 
589 1 -4.52628 59.5299 -12.3406 0.000114213 1 
590 1 -6.09306 60.5754 -10.1803 0.000524531 1 
591 1 -4.21807 58.4548 -9.71029 0.000518167 1 
592 1 -5.78895 59.4931 -7.55982 0.00306642 1 
593 1 -7.03441 57.9317 -9.58039 0.000734741 1 
594 1 -8.60558 58.9724 -7.40942 0.00431102 1 
595 1 -6.73523 56.8554 -6.94548 0.00384635 1 
596 1 -8.32511 57.8831 -4.76399 0.0347852 1 
597 1 -9.54216 56.3302 -6.80086 0.00374872 1 
598 1 -11.1001 57.3745 -4.63464 0.0203408 1 
599 1 -9.25495 55.2423 -4.13682 0.0619356 1 
600 1 -10.8235 56.3197 -1.99028 0.751395 5 
601 1 -12.0561 54.7339 -4.01028 0.123403 1 
602 1 -13.6024 55.733 -1.64341 6.70296 5 
603 1 -11.6999 53.5084 -1.44866 4.95434 5 
604 1 -14.4679 52.9707 -1.50064 3.89934 5 
607 1 -2.95987 58.4849 -14.4992 6.3041e-05 1 
608 1 -1.08165 56.3715 -14.0206 6.3397e-05 1 
609 1 -2.64922 57.4148 -11.8669 0.000188731 1 
610 1 -3.89704 55.8445 -13.8995 6.65953e-05 1 
611 1 -5.46473 56.8886 -11.741 0.00012906 1 
612 1 -3.58642 54.7756 -11.2641 0.000177096 1 
613 1 -5.15746 55.8165 -9.10424 0.000533861 1 
614 1 -6.40141 54.2503 -11.1419 0.000135829 1 
615 1 -7.97265 55.2943 -8.9808 0.000902753 1 
616 1 -6.09163 53.1823 -8.50697 0.000718765 1 
617 1 -7.67103 54.225 -6.35035 0.00839726 1 
618 1 -8.9082 52.6572 -8.39046 0.00154079 1 
619 1 -10.482 53.6998 -6.20955 0.0111642 1 
620 1 -8.59648 51.5826 -5.7759 0.00900066 1 
621 1 -10.1361 52.6178 -3.57153 0.12795 1 
622 1 -11.3981 51.0481 -5.67026 0.0190118 1 
623 1 -12.9464 52.0418 -3.55827 0.126956 1 
624 1 -11.0977 49.9654 -3.09658 0.162334 1 
625 1 -12.6358 50.8961 -0.885241 8.70264 5 
626 1 -13.9287 49.3948 -2.91124 0.144062 1 
627 1 -15.5822 50.4011 -0.869853 6.30131 5 
628 1 -13.4812 48.15 -0.0630399 9.84868 5 
633 1 -2.01799 53.7324 -13.4186 5.60797e-05 1 
635 1 -4.83309 53.2055 -13.2992 6.05996e-05 1 
636 1 -2.95287 51.094 -12.8166 4.80777e-05 1 
637 1 -4.5205 52.1381 -10.6626 0.000148593 1 
638 1 -5.76762 50.5667 -12.701 6.81651e-05 1 
639 1 -7.33583 51.6119 -10.5475 0.000213166 1 
640 1 -5.45214 49.5001 -10.0668 0.000210655 1 
641 1 -7.02048 50.5455 -7.92037 0.00119409 1 
642 1 -8.26891 48.9697 -9.95587 0.000360019 1 
643 1 -9.83811 50.009 -7.81161 0.00149014 1 
644 1 -7.95505 47.8987 -7.33089 0.0017489 1 
645 1 -9.52669 48.9256 -5.19908 0.0069985 1 
646 1 -10.7779 47.3623 -7.21294 0.00216647 1 
647 1 -12.3522 48.3805 -5.06293 0.00818521 1 
648 1 -10.4737 46.2896 -4.58291 0.0284021 1 
649 1 -12.0779 47.3043 -2.42664 6.81837 5 
650 1 -13.3001 45.7398 -4.41139 0.0770484 1 
651 1 -14.8458 46.7529 -2.2889 0.320739 1 
652 1 -12.9618 44.7332 -1.56102 6.0067 5 
655 1 -1.38806 50.0498 -14.9703 2.19187e-05 1 
657 1 -4.20212 49.5217 -14.8543 2.80725e-05 1 
658 1 -2.32305 47.4112 -14.368 2.89628e-05 1 
659 1 -3.88639 48.4554 -12.2158 6.26357e-05 1 
660 1 -5.13707 46.8825 -14.2539 4.57481e-05 1 
661 1 -6.70184 47.9268 -12.1037 0.000121935 1 
662 1 -4.82051 45.8167 -11.6149 0.000125517 1 
663 1 -6.38598 46.8602 -9.47079 0.000498766 1 
664 1 -7.63765 45.287 -11.5025 0.000137354 1 
665 1 -9.20553 46.3267 -9.35402 0.000450239 1 
666 1 -7.3237 44.2222 -8.86539 0.000688908 1 
667 1 -8.89441 45.2549 -6.7113 0.00705192 1 
668 1 -10.1434 43.6914 -8.74763 0.000348837 1 
669 1 -11.7208 44.7304 -6.60182 0.00648326 1 
670 1 -9.83435 42.6332 -6.1036 0.00589477 1 
671 1 -11.4274 43.6956 -3.9711 0.162905 1 
672 1 -12.6556 42.0999 -5.98519 0.00805957 1 
63771 2 10.3864 34.6811 2.48592 7.29237 5 
674 1 -12.3542 41.0459 -3.3558 0.112193 1 
685 1 -3.25824 44.7727 -13.765 5.50693e-05 1 
687 1 -6.07266 44.2437 -13.6518 5.87744e-05 1 
688 1 -4.19396 42.135 -13.1606 8.69915e-05 1 
689 1 -5.75619 43.1792 -11.0108 0.000158971 1 
690 1 -7.0087 41.6061 -13.0483 5.15583e-05 1 
691 1 -8.57398 42.6494 -10.8973 0.00010004 1 
692 1 -6.69224 40.544 -10.4064 0.000208324 1 
693 1 -8.26005 41.5881 -8.25463 0.00033831 1 
694 1 -9.50874 40.0134 -10.2919 4.94959e-05 1 
695 1 -11.0777 41.0579 -8.13987 0.00047299 1 
696 1 -9.19244 38.9535 -7.65069 0.000435384 1 
697 1 -10.7581 40.011 -5.49786 0.00917868 1 
698 1 -12.0053 38.4221 -7.53669 0.000650431 1 
700 1 -11.6916 37.3634 -4.90019 0.0120712 1 
715 1 -3.57078 38.4542 -14.713 7.0052e-05 1 
716 1 -5.12983 39.4986 -12.5566 8.81119e-05 1 
717 1 -6.38299 37.9247 -14.5985 3.19958e-05 1 
718 1 -7.94437 38.9689 -12.4443 3.70736e-05 1 
719 1 -6.06594 36.8621 -11.9538 0.000114027 1 
720 1 -7.62714 37.9069 -9.80245 0.000226471 1 
721 1 -8.87941 36.3308 -11.8391 6.5602e-05 1 
722 1 -10.4413 37.3755 -9.68695 9.77546e-05 1 
723 1 -8.56116 35.2679 -9.19197 0.000546894 1 
724 1 -10.1225 36.3141 -7.04233 0.00317712 1 
3873 1 38.9344 1.01573 -3.81614 0.0908179 1 
2952 1 18.6747 63.2462 -1.29482 7.03752 5 
744 1 -4.50778 35.8173 -14.111 7.76585e-05 1 
746 1 -7.31955 35.287 -13.9949 3.85394e-05 1 
747 1 -5.44567 33.18 -13.5085 7.17845e-05 1 
748 1 -7.00286 34.2244 -11.3481 0.000128432 1 
749 1 -8.25646 32.6495 -13.3899 9.7359e-05 1 
750 1 -9.81458 33.6935 -11.2324 0.000114025 1 
751 1 -7.9401 31.5877 -10.7384 0.000542598 1 
752 1 -9.49581 32.6336 -8.58057 0.000309796 1 
776 1 -6.38447 30.543 -12.9052 8.50653e-05 1 
777 1 -7.63671 28.968 -14.9499 4.78964e-05 1 
778 1 -9.19398 30.0132 -12.7852 0.000135268 1 
779 1 -7.3238 27.9065 -12.3034 0.000114315 1 
780 1 -8.87795 28.9541 -10.1329 0.000580788 1 
806 1 -5.76617 26.8588 -14.472 5.32931e-05 1 
808 1 -8.57535 26.3307 -14.3489 6.91509e-05 1 
809 1 -6.70557 24.2205 -13.8742 7.60944e-05 1 
64535 2 4.03384 4.78752 2.51523 0.690513 1 
1013 1 -16.3528 62.7217 -3.38805 0.151631 1 
1014 1 -15.9912 61.7216 -0.767272 5.81568 5 
1015 1 -18.8696 61.2949 -0.468865 2.60164 5 
1016 1 -7.96196 62.6955 -10.6415 0.000347799 1 
1017 1 -10.7675 62.1695 -10.5088 0.000255262 1 
1018 1 -10.4585 61.1008 -7.8654 0.00206537 1 
1019 1 -11.9921 62.1474 -5.67779 0.0255468 1 
1020 1 -13.2634 60.5844 -7.73958 0.00233375 1 
1021 1 -14.8084 61.6574 -5.56694 0.0145151 1 
1022 1 -12.9544 59.5304 -5.11094 0.0361478 1 
1023 1 -14.4932 60.6491 -2.93949 0.262285 1 
1024 1 -15.7613 59.0329 -4.97229 0.0724274 1 
1025 1 -17.3337 60.0511 -2.6347 6.21077 5 
1026 1 -15.4252 57.9999 -2.42867 6.64392 5 
1027 1 -15.3414 57.2857 0.140835 9.00139 5 
1028 1 -18.186 57.3944 -2.17814 5.75813 5 
1033 1 -4.8356 60.5995 -14.973 4.37051e-05 1 
1034 1 -6.39975 61.6469 -12.8098 0.00011557 1 
1035 1 -7.64757 60.0735 -14.8476 4.42731e-05 1 
1036 1 -9.20975 61.1211 -12.6809 9.95405e-05 1 
1037 1 -7.33935 59.0047 -12.213 0.00014475 1 
1038 1 -8.90333 60.0511 -10.0447 0.000492173 1 
1039 1 -10.1499 58.4804 -12.0831 0.000103568 1 
1040 1 -11.7096 59.5293 -9.91136 0.000182111 1 
1041 1 -9.84447 57.4091 -9.44487 0.000446541 1 
1042 1 -11.4043 58.4574 -7.27201 0.00144271 1 
1043 1 -12.6519 56.8903 -9.31419 0.000701471 1 
1044 1 -14.207 57.9412 -7.12859 0.0092872 1 
1045 1 -12.3464 55.8173 -6.67285 0.00522227 1 
1046 1 -13.8879 56.8623 -4.4678 0.132595 1 
1047 1 -15.1449 55.3039 -6.56496 0.00647241 1 
1048 1 -16.6964 56.3599 -4.42125 0.0601311 1 
1049 1 -14.8318 54.2386 -3.95039 0.188136 1 
1050 1 -16.4275 55.3487 -1.8368 1.24143 5 
59798 2 20.6886 18.6056 2.47436 5.59418 5 
64734 2 3.40891 46.969 2.51523 0.690513 1 
1064 1 -5.7737 57.9587 -14.3752 4.6872e-05 1 
1066 1 -8.58631 57.4334 -14.2499 5.57745e-05 1 
1067 1 -6.71122 55.3189 -13.7767 5.65707e-05 1 
1068 1 -8.27841 56.3647 -11.6149 0.000192387 1 
1069 1 -9.52428 54.7939 -13.6533 7.59378e-05 1 
1070 1 -11.0894 55.8413 -11.487 0.000177419 1 
1071 1 -9.21548 53.7258 -11.02 0.000257408 1 
1072 1 -10.783 54.7716 -8.85063 0.000930512 1 
1073 1 -12.0269 53.2006 -10.8979 0.000263878 1 
1074 1 -13.59 54.2492 -8.73283 0.00109991 1 
1075 1 -11.7173 52.1281 -8.27465 0.00201469 1 
1076 1 -13.2817 53.1723 -6.1183 0.016784 1 
1077 1 -14.5312 51.5997 -8.15148 0.00182605 1 
1078 1 -16.0937 52.6576 -5.99343 0.0167253 1 
1079 1 -14.2212 50.4974 -5.54756 0.0131658 1 
1080 1 -15.7896 51.5409 -3.4546 0.149198 1 
1101 1 -7.64748 52.6797 -13.1798 7.12517e-05 1 
1103 1 -10.4611 52.1536 -13.0594 9.83989e-05 1 
1104 1 -8.58266 50.0391 -12.5849 0.000104856 1 
1105 1 -10.1503 51.0838 -10.4313 0.0003652 1 
1106 1 -11.398 49.5114 -12.4654 0.000146807 1 
1107 1 -12.965 50.5554 -10.3088 0.000346923 1 
1108 1 -11.0871 48.4387 -9.83828 0.000533726 1 
1109 1 -12.6554 49.4742 -7.68785 0.00192224 1 
1110 1 -13.9045 47.9094 -9.71029 0.000518167 1 
1111 1 -15.4753 48.9477 -7.55982 0.00306642 1 
1112 1 -13.5988 46.8268 -7.07285 0.00348106 1 
1113 1 -15.1732 47.8537 -4.93652 0.010696 1 
1133 1 -7.01657 48.9941 -14.7382 4.38381e-05 1 
1135 1 -9.83146 48.4665 -14.6202 5.36107e-05 1 
1136 1 -7.95231 46.3541 -14.1387 5.73598e-05 1 
1137 1 -9.51851 47.3974 -11.9874 0.000129118 1 
1138 1 -10.768 45.8261 -14.0206 6.3397e-05 1 
1139 1 -12.3356 46.8694 -11.8669 0.000188731 1 
1140 1 -10.4554 44.7578 -11.3853 0.000127089 1 
1141 1 -12.0266 45.7981 -9.2348 0.000748646 1 
1142 1 -13.2728 44.2302 -11.2641 0.000177096 1 
38768 2 -6.27748 36.4237 2.51523 0.690513 1 
1144 1 -12.9629 43.1621 -8.62688 0.00067176 1 
59758 2 23.4066 25.8783 2.51523 0.690513 1 
1171 1 -8.88847 43.7149 -13.5366 5.39577e-05 1 
1173 1 -11.7044 43.187 -13.4186 5.60797e-05 1 
1174 1 -9.82421 41.077 -12.933 3.85465e-05 1 
1175 1 -11.3912 42.1205 -10.7805 0.000109092 1 
1176 1 -12.6393 40.5487 -12.8166 4.80777e-05 1 
1178 1 -12.3239 39.4836 -10.1771 0.000106497 1 
1207 1 -11.0745 39.5044 -14.9703 2.19187e-05 1 
1208 1 -9.19614 37.395 -14.4831 2.28453e-05 1 
1209 1 -10.7587 38.4392 -12.3293 3.54889e-05 1 
1210 1 -12.0094 36.8658 -14.368 2.89628e-05 1 
64859 2 0.690866 39.6964 2.47436 5.59418 5 
1246 1 -10.1317 34.7569 -13.8791 4.24464e-05 1 
1586 1 -19.1165 62.1946 -3.23952 0.181295 1 
1591 1 -13.8865 62.7076 -13.0274 8.10389e-05 1 
1592 1 -13.5743 61.6451 -10.3828 0.000191579 1 
1593 1 -15.1268 62.6979 -8.21403 0.00140491 1 
1594 1 -16.3825 61.1191 -10.2566 0.000355495 1 
1595 1 -17.9318 62.166 -8.07637 0.00490878 1 
1596 1 -16.0693 60.0651 -7.60752 0.0041167 1 
1597 1 -17.6112 61.1104 -5.39291 0.0510519 1 
1598 1 -18.872 59.536 -7.47675 0.00337345 1 
1600 1 -18.5535 58.482 -4.8213 0.0411384 1 
1614 1 -10.4583 59.5476 -14.7213 3.66931e-05 1 
1615 1 -12.0182 60.5956 -12.5528 6.54647e-05 1 
1616 1 -13.2681 59.0217 -14.5959 4.33869e-05 1 
1617 1 -14.8266 60.0697 -12.4267 0.000100599 1 
1618 1 -12.9588 57.957 -11.9548 0.000131768 1 
1619 1 -14.5161 59.0068 -9.78023 0.000599622 1 
1620 1 -15.7669 57.4325 -11.8296 0.000154293 1 
1621 1 -17.3229 58.4833 -9.65706 0.000456102 1 
1622 1 -15.4569 56.37 -9.19121 0.000855388 1 
1623 1 -17.011 57.426 -7.01963 0.0052611 1 
7902 1 25.1539 43.1521 -3.76309 0.129801 1 
6541 1 25.4998 42.1012 -1.00409 5.92672 5 
1651 1 -11.3974 56.9084 -14.124 5.26893e-05 1 
1653 1 -14.2074 56.3831 -13.9992 6.15389e-05 1 
1654 1 -12.3359 54.2688 -13.5295 7.24774e-05 1 
1655 1 -13.8984 55.3179 -11.3625 0.000204209 1 
1656 1 -15.1467 53.7432 -13.4045 8.76689e-05 1 
1657 1 -16.7074 54.7928 -11.2355 0.000224746 1 
1658 1 -14.8384 52.6753 -10.7729 0.000304635 1 
1659 1 -16.3999 53.7267 -8.60452 0.0010772 1 
1695 1 -13.2741 51.6273 -12.9362 0.000103238 1 
1696 1 -14.522 50.0542 -14.973 4.37051e-05 1 
1697 1 -16.0861 51.1015 -12.8098 0.00011557 1 
1698 1 -14.2127 48.9845 -12.3406 0.000114213 1 
1699 1 -15.7795 50.03 -10.1803 0.000524531 1 
1736 1 -12.6463 47.9395 -14.4992 6.3041e-05 1 
4765 1 35.4653 11.516 -3.76309 0.129801 1 
1739 1 -13.5834 45.2992 -13.8995 6.65953e-05 1 
64297 2 10.3773 50.2417 2.47436 5.59418 5 
2298 1 -16.6958 62.1791 -12.9052 8.50653e-05 1 
2299 1 -19.5053 61.6494 -12.7852 0.000135268 1 
2301 1 -19.1893 60.5903 -10.1329 0.000580788 1 
2323 1 -17.948 60.6041 -14.9499 4.78964e-05 1 
2324 1 -16.0775 58.495 -14.472 5.32931e-05 1 
2325 1 -17.6351 59.5426 -12.3034 0.000114315 1 
2326 1 -18.8867 57.9668 -14.3489 6.91509e-05 1 
59857 2 20.6977 3.045 2.48592 7.29237 5 
2365 1 -17.0169 55.8566 -13.8742 7.60944e-05 1 
58053 2 26.6505 19.5506 2.27617 3.1596 5 
3736 1 35.8111 10.4651 -1.00409 5.92672 5 
3738 1 34.7422 7.86515 -0.618086 4.00223 5 
3804 1 36.3896 6.74178 -2.71354 0.275787 1 
3806 1 36.7762 5.86977 0.239251 7.93137 5 
3807 1 35.5193 4.13184 -2.1194 0.347921 1 
3808 1 33.9889 5.29855 -0.196794 10.269 5 
3872 1 37.059 3.07952 -4.27015 0.0338453 1 
3874 1 37.2979 1.98783 -1.55322 1.35027 5 
3875 1 36.1108 0.46204 -3.68141 0.0549818 1 
3876 1 34.5037 1.55437 -1.58041 1.87209 5 
56340 2 30.3841 13.5904 2.48592 7.29237 5 
43719 2 -13.345 61.7321 2.27617 3.1596 5 
62573 2 16.3391 51.1867 2.27617 3.1596 5 
4618 1 32.9152 17.2623 -2.8515 0.264342 1 
4619 1 31.2982 18.3415 -0.464073 8.09789 5 
4620 1 33.2939 16.2553 -0.352307 10.7311 5 
4621 1 30.4313 15.5803 0.0962108 9.30605 5 
4692 1 33.563 13.5946 -4.31348 0.0260855 1 
4693 1 31.9742 14.608 -2.13604 6.63533 5 
4694 1 33.8249 12.4966 -1.67296 5.53111 5 
4695 1 30.9906 12.0324 -1.33359 6.14872 5 
4766 1 34.2182 9.94568 -5.8684 0.0109762 1 
4767 1 32.6104 10.9866 -3.73887 0.151983 1 
4768 1 34.5534 8.88281 -3.268 0.122775 1 
4769 1 32.9751 9.93234 -1.24886 8.63911 5 
4770 1 31.6903 8.31475 -3.16416 0.0645645 1 
4771 1 30.1287 9.30093 -0.892163 5.30465 5 
4772 1 31.9965 7.18853 -0.490307 5.19807 5 
4773 1 29.2541 6.64085 -0.602021 9.34561 5 
4840 1 35.7888 8.89091 -8.02344 0.000754928 1 
4842 1 36.1092 7.81962 -5.38385 0.0115822 1 
4843 1 34.8611 6.25314 -7.43432 0.000969032 1 
4844 1 33.2889 7.30231 -5.30629 0.0100268 1 
4845 1 35.1783 5.18734 -4.79944 0.0128737 1 
4846 1 33.5865 6.26777 -2.72019 0.169389 1 
4847 1 32.3521 4.64537 -4.7112 0.0179312 1 
4848 1 30.7942 5.65181 -2.5916 0.24406 1 
4849 1 32.6887 3.60139 -2.11739 1.82904 5 
4850 1 31.3227 4.2828 0.15294 8.64259 5 
4851 1 29.8021 3.12693 -1.87424 5.99198 5 
42055 2 -9.61133 55.7719 2.48592 7.29237 5 
4917 1 36.4268 5.20895 -9.57576 0.00022202 1 
4919 1 36.7456 4.14559 -6.931 0.0017707 1 
4920 1 35.4928 2.57178 -8.97442 0.00043927 1 
4921 1 33.9248 3.61603 -6.84067 0.0036934 1 
4922 1 35.8107 1.51341 -6.33173 0.00276119 1 
4923 1 34.2458 2.57143 -4.21592 0.0452141 1 
4924 1 32.9783 0.988012 -6.22453 0.00822601 1 
4925 1 31.381 2.01667 -4.02818 0.172428 1 
4926 1 12.6436 63.2484 -3.58779 0.159836 1 
4927 1 31.7136 1.11592 -1.14302 7.47074 5 
4928 1 28.9697 0.501919 -1.47325 6.85653 5 
4991 1 38.614 0.483319 -13.2743 6.77378e-05 1 
4992 1 37.0546 1.52689 -11.1202 0.000165642 1 
4993 1 37.3737 0.466202 -8.47027 0.000591561 1 
4994 1 13.9328 63.2106 -8.36754 0.000839373 1 
37076 2 -3.03365 30.0959 2.27617 3.1596 5 
5519 1 27.876 28.7225 -0.33482 7.50182 5 
5595 1 29.5681 27.9547 -2.67447 0.486711 1 
5597 1 30.1966 27.047 -0.20749 13.8399 5 
5598 1 28.6807 25.2353 -2.10019 6.59823 5 