ITEM: TIMESTEP
0
ITEM: NUMBER OF ATOMS
6655
ITEM: BOX BOUNDS xy xz yz pp pp ss
-1.3282578449000001e+01 5.1865306322999999e+01 -1.3282578449000001e+01
0.0000000000000000e+00 7.1908192229999997e+01 0.0000000000000000e+00
-8.7151790495439144e+01 8.9320756631509639e+01 0.0000000000000000e+00
ITEM: ATOMS id type x y z c_csym c_cna 
1422 1 2.1433 30.6984 -1.20363 12.3351 5 
1423 1 4.98093 31.6556 -0.227782 7.35069 5 
1424 1 9.7812 33.3015 -0.38339 9.48192 5 
1425 1 13.7202 35.6622 -0.447149 8.05266 5 
1426 1 1.22529 33.5798 -1.16793 8.15794 5 
1427 1 1.32004 33.1664 -4.20892 0.289017 1 
1428 1 3.61634 32.8423 -2.37488 6.52591 5 
1429 1 2.59472 35.3204 -3.09956 8.46246 5 
1431 1 5.20726 34.6262 -3.7909 0.866268 5 
1432 1 7.38276 34.1428 -1.86921 4.98651 5 
1436 1 11.2502 35.5809 -1.70499 5.24575 5 
1464 1 2.94032 35.0613 -5.74492 0.303056 1 
2041 1 1.6905 26.035 -1.96141 4.36774 5 
2042 1 0.725436 28.6382 -2.27353 5.55608 5 
2043 1 3.31476 27.878 -3.30199 8.00566 5 
2044 1 4.25668 26.4175 -0.864849 7.72999 5 
2045 1 4.48807 30.242 -2.48428 14.738 5 
2046 1 5.01017 28.8553 -0.376377 12.1242 5 
2047 1 6.96741 29.244 -3.05753 4.72971 5 
2048 1 9.16111 28.8001 -1.20415 6.05381 5 
2049 1 8.15782 31.4309 -1.58708 7.77887 5 
2050 1 10.7174 30.7469 -2.65122 6.44687 5 
2051 1 13.0538 30.1561 -1.37864 9.04464 5 
2052 1 12.3389 32.9668 -1.50339 3.80025 5 
2053 1 14.623 32.0162 -2.86557 6.29667 5 
2054 1 14.8115 31.8316 -0.220309 9.20232 5 
2055 1 15.7428 34.1898 -1.42609 11.5379 5 
2056 1 18.3041 33.3775 -2.34451 5.65111 5 
2057 1 20.2742 32.7946 -0.541634 6.82191 5 
39556 3 47.0299 4.27777 0.243938 8.59658 5 
2059 1 22.1707 34.7166 -2.0482 0.71187 5 
2060 1 24.4872 34.2482 -0.454312 7.39338 5 
2066 1 1.00207 28.3305 -5.14251 0.0712703 1 
2067 1 2.22073 30.5171 -3.92348 0.693972 1 
2068 1 2.57749 30.2357 -6.67207 0.0602119 1 
2069 1 4.83929 29.7177 -5.03011 0.776942 1 
2070 1 3.89919 32.4013 -5.19506 0.303429 1 
2071 1 6.18856 32.0325 -3.46287 2.2782 5 
2072 1 6.41358 31.6609 -6.32031 0.0498874 1 
2073 1 8.61524 31.1512 -4.54079 0.0901873 1 
2074 1 7.70171 33.8517 -4.90894 0.0571846 1 
2075 1 9.89986 33.3566 -3.15496 0.405463 1 
2076 1 10.1706 33.0366 -6.04243 0.0102939 1 
2077 1 12.3538 32.5231 -4.34404 0.243595 1 
2078 1 11.4009 35.2319 -4.67002 0.122605 1 
2079 1 13.6475 34.7648 -3.11102 6.19369 5 
2080 1 13.9488 34.4062 -5.85087 0.0505567 1 
2081 1 16.194 33.9437 -4.13844 0.115343 1 
2085 1 19.9403 35.2469 -3.70485 0.0726069 1 
2120 1 0.358013 30.738 -8.38977 0.0041534 1 
2121 1 1.64233 32.8967 -7.02362 0.0225325 1 
2122 1 1.95279 32.633 -9.84756 0.00171406 1 
2123 1 4.17979 32.1426 -8.07659 0.0184794 1 
2124 1 3.23436 34.8053 -8.49183 0.0217253 1 
2125 1 5.46391 34.316 -6.67632 0.0405048 1 
2126 1 5.75428 34.0312 -9.53966 0.00345281 1 
2127 1 7.96518 33.5399 -7.77777 0.00529692 1 
2130 1 9.52825 35.4203 -9.26023 0.00173534 1 
2131 1 11.7315 34.9162 -7.53106 0.00786665 1 
2175 1 1.00288 35.3088 -10.2308 0.00162554 1 
2176 1 1.3158 35.0326 -13.0537 0.000168781 1 
2177 1 3.53552 34.5296 -11.305 0.00122373 1 
2770 1 0.894832 21.3634 -0.421119 7.28598 5 
2771 1 1.25777 21.0461 -3.07809 0.319605 1 
2772 1 3.56607 20.6362 -1.13813 9.5433 5 
2773 1 2.58828 23.3275 -1.83307 5.96577 5 
2774 1 5.07361 22.4073 -2.72536 6.92189 5 
2775 1 7.20004 21.7905 -0.609465 9.61778 5 
2776 1 6.14113 24.5708 -1.4988 10.3868 5 
2777 1 8.85554 23.8552 -2.22996 1.1701 5 
2778 1 11.3168 23.4452 -0.558608 7.05134 5 
2779 1 10.0205 26.1019 -1.06935 1.71259 5 
2780 1 12.6932 25.3257 -2.23389 0.535227 1 
2781 1 15.1043 25.195 -0.595956 8.23685 5 
2782 1 14.0194 27.6498 -1.00216 4.88129 5 
2783 1 16.5331 26.7396 -2.23767 10.1175 5 
2784 1 20.2207 27.9704 -1.39592 8.18468 5 
2785 1 24.1769 29.3061 -1.23443 6.44948 5 
2786 1 27.9286 30.6248 -1.20436 10.2034 5 
2787 1 31.1154 31.5963 -0.342667 7.2093 5 
2788 1 35.731 33.2671 -0.373814 9.3161 5 
2789 1 39.6555 35.6672 -0.444585 8.03305 5 
2790 1 0.333603 23.778 -3.35832 0.0943219 1 
2791 1 0.648791 23.4997 -6.19363 0.00948562 1 
2792 1 2.86248 22.9583 -4.53446 0.11556 1 
2793 1 1.91283 25.678 -4.81469 0.0911434 1 
2794 1 4.13612 25.1473 -3.24609 5.21099 5 
2795 1 4.47495 24.8832 -5.95019 0.0599532 1 
2796 1 6.71903 24.3831 -4.17464 0.279685 1 
2797 1 5.75515 27.0783 -4.49906 6.55162 5 
2798 1 7.82424 26.617 -2.65631 5.86085 5 
2799 1 8.26736 26.2972 -5.56893 0.0432792 1 
2800 1 10.3937 25.7723 -3.82875 0.136729 1 
2801 1 9.51114 28.4907 -4.15746 0.0643828 1 
2802 1 11.6598 27.9766 -2.46702 0.510683 1 
2803 1 12.001 27.6603 -5.33323 0.0472674 1 
2804 1 14.2425 27.1996 -3.71163 0.356267 1 
2805 1 13.3046 29.8225 -4.05782 0.548646 1 
2806 1 15.7802 29.52 -2.05067 9.57601 5 
2807 1 15.8728 29.0449 -5.03964 0.268208 1 
2808 1 18.1782 28.5607 -3.32592 5.93996 5 
2809 1 17.1513 31.2324 -3.75893 5.81806 5 
2810 1 18.8393 30.6292 -1.52915 10.4325 5 
2811 1 19.6812 30.4304 -4.70979 0.478488 1 
2812 1 21.802 29.8804 -2.89716 0.392773 1 
2813 1 20.864 32.5256 -3.31608 0.39848 1 
2814 1 23.0246 32.0488 -1.36559 3.47658 5 
2815 1 23.3969 31.7726 -4.39487 0.138365 1 
2816 1 25.63 31.2957 -2.75776 0.408074 1 
2817 1 24.7368 33.9102 -3.14192 0.32427 1 
2818 1 27.1846 33.5553 -1.12958 8.94666 5 
2819 1 27.2257 33.1476 -4.20681 0.319129 1 
2820 1 29.5136 32.673 -2.3775 4.72741 5 
2821 1 28.5587 35.2307 -3.05488 7.94026 5 
2823 1 31.1317 34.5633 -3.75319 0.607937 5 
2824 1 33.3123 34.1036 -1.8571 4.67663 5 
2828 1 37.1838 35.5714 -1.69902 5.27074 5 
2842 1 2.24594 25.3922 -7.64541 0.00534706 1 
2843 1 1.307 28.0648 -8.00249 0.00479959 1 
2844 1 3.51271 27.5562 -6.24107 0.101488 1 
2845 1 3.84057 27.286 -9.08827 0.00486948 1 
2846 1 6.06057 26.7978 -7.32878 0.019026 1 
2847 1 5.12404 29.4614 -7.75019 0.0436284 1 
2848 1 7.35637 28.9785 -5.95046 0.0618574 1 
2849 1 7.642 28.6805 -8.79987 0.00374304 1 
2850 1 9.83567 28.1788 -7.04578 0.0080289 1 
2851 1 8.90799 30.8625 -7.41466 0.00326232 1 
2852 1 11.086 30.3544 -5.64447 0.0943734 1 
2853 1 11.4132 30.0611 -8.51844 0.00813233 1 
2854 1 13.6285 29.5432 -6.82835 0.0347298 1 
2855 1 12.6733 32.2294 -7.1808 0.017643 1 
2856 1 14.9154 31.7213 -5.53748 0.124165 1 
2857 1 15.2261 31.442 -8.28807 0.0108686 1 
2858 1 17.4574 30.9326 -6.53236 0.0147942 1 
2859 1 16.507 33.6267 -6.91525 0.0132922 1 
2860 1 18.7287 33.1059 -5.15651 0.059607 1 
2861 1 19.029 32.8244 -7.97807 0.00318602 1 
2862 1 21.2371 32.304 -6.21113 0.0180223 1 
2863 1 20.2884 34.9851 -6.58002 0.00998537 1 
2864 1 22.4795 34.4283 -4.82981 0.0326142 1 
2865 1 22.8053 34.1889 -7.68602 0.00339475 1 
2866 1 25.0111 33.6685 -5.95917 0.0215073 1 
2870 1 28.8623 35.0529 -5.72827 0.243379 1 
2896 1 1.62683 27.7905 -10.8398 0.000376156 1 
2897 1 0.679516 30.4645 -11.2178 0.000308772 1 
2898 1 2.89674 29.962 -9.47535 0.00353713 1 
2899 1 3.21047 29.6822 -12.302 0.000186437 1 
2900 1 5.42676 29.1798 -10.5568 0.00182571 1 
2901 1 4.4817 31.8565 -10.9222 0.0011482 1 
2902 1 6.69933 31.3605 -9.17079 0.00302829 1 
2903 1 7.00426 31.0709 -12.0119 0.000222112 1 
2904 1 9.21373 30.5678 -10.2647 0.000573106 1 
2905 1 8.26858 33.2459 -10.6338 0.000834159 1 
2906 1 10.4732 32.7427 -8.89579 0.00219931 1 
2907 1 10.7906 32.4547 -11.7342 0.000283608 1 
2908 1 13.0003 31.9477 -10.0027 0.00166654 1 
2909 1 12.0538 34.6277 -10.3673 0.000683982 1 
2910 1 14.2717 34.1231 -8.64388 0.00317902 1 
2911 1 14.5877 33.8385 -11.463 0.000239538 1 
2912 1 16.8095 33.3349 -9.72711 0.00121682 1 
2914 1 18.0791 35.5076 -8.34428 0.00335946 1 
2915 1 18.3884 35.2217 -11.178 0.000225029 1 
2916 1 20.601 34.7099 -9.42989 0.000877687 1 
2950 1 0.995387 30.1857 -14.0494 2.60358e-05 1 
2951 1 2.26417 32.3568 -12.6767 0.000163614 1 
2953 1 4.79112 31.5729 -13.76 9.76221e-05 1 
2954 1 3.84409 34.2485 -14.1357 9.06271e-05 1 
2955 1 6.05818 33.7464 -12.3839 0.0003256 1 
2957 1 8.58118 32.9591 -13.4751 0.000110694 1 
2959 1 9.84415 35.1324 -12.1032 0.000247389 1 
2960 1 10.1607 34.8475 -14.9392 3.82485e-05 1 
2961 1 12.3726 34.343 -13.199 8.21495e-05 1 
3618 1 1.76087 13.7392 -0.828867 2.19812 5 
3619 1 0.636971 16.4666 -1.2045 1.15732 5 
3620 1 3.13773 15.6995 -2.24094 0.297662 1 
3621 1 4.44592 17.7826 -1.11507 7.71076 5 
3622 1 6.9898 17.1233 -2.04699 5.81008 5 
3623 1 6.97092 18.8908 -0.0712375 11.4486 5 
3624 1 10.6869 18.5727 -1.53167 6.21447 5 
3625 1 12.1012 20.5414 -0.327638 10.3657 5 
3626 1 14.7709 20.0628 -1.44238 6.05429 5 
3627 1 16.8979 21.5498 -0.294239 9.31653 5 
3628 1 21.9842 22.6558 -0.748089 5.38096 5 
3629 1 26.177 24.2209 -0.558027 6.97127 5 
3630 1 0.906168 16.224 -3.97907 0.0408469 1 
3631 1 2.16448 18.4132 -2.69269 0.30122 1 
3632 1 2.51009 18.1278 -5.48152 0.0229652 1 
3633 1 4.7226 17.6265 -3.81758 0.168036 1 
3634 1 3.79392 20.2938 -4.10454 0.0763579 1 
3635 1 5.99832 19.8 -2.41101 5.48141 5 
3636 1 6.36587 19.551 -5.16407 0.0324795 1 
3637 1 8.57532 19.0821 -3.3548 2.11338 5 
3638 1 7.65017 21.7231 -3.64521 0.310365 1 
3639 1 9.79295 21.2441 -1.81482 4.19727 5 
3640 1 10.1702 20.9496 -4.77554 0.0289473 1 
3641 1 12.3947 20.4584 -3.06096 0.290899 1 
3642 1 11.4379 23.0925 -3.39397 0.194322 1 
3643 1 13.818 22.7081 -1.51076 6.51404 5 
3644 1 13.9516 22.327 -4.50759 0.152519 1 
3645 1 16.2346 21.901 -2.89601 5.37804 5 
3646 1 15.2191 24.5062 -3.2969 0.40421 1 
3647 1 17.4912 24.0787 -1.40641 9.56855 5 
3648 1 17.7854 23.7626 -4.28007 0.134993 1 
3649 1 19.9646 23.2508 -2.47804 5.82321 5 
3650 1 19.1174 25.8866 -2.81586 0.889865 5 
3651 1 21.4206 25.4544 -0.759773 6.82271 5 
3652 1 21.5644 25.0832 -3.91973 0.134274 1 
3653 1 23.7849 24.5768 -2.17103 5.03708 5 
3654 1 22.8135 27.2113 -2.45033 5.1049 5 
3655 1 26.2364 27.2845 -0.244265 9.00755 5 
3656 1 25.2744 26.4332 -3.72728 2.55652 5 
3657 1 27.5339 25.9189 -2.23233 7.28633 5 
3658 1 26.6025 28.6137 -2.55321 5.4749 5 
3659 1 29.1157 27.8239 -3.7721 6.03746 5 
3660 1 29.0892 27.8136 -1.12842 11.2439 5 
3661 1 30.3126 30.0034 -2.42091 9.59171 5 
3662 1 31.6155 28.6615 -0.573465 7.59287 5 
3663 1 32.8976 29.2246 -3.14193 5.42773 5 
3664 1 35.0362 28.8131 -1.17983 5.38068 5 
3665 1 34.0526 31.4102 -1.57352 8.06845 5 
3666 1 36.6339 30.7394 -2.64483 6.41992 5 
3667 1 38.9899 30.1697 -1.39855 8.91262 5 
3668 1 38.2719 32.9627 -1.50166 3.91026 5 
3669 1 40.5587 32.0168 -2.8656 6.25382 5 
3670 1 40.7472 31.834 -0.219885 9.25414 5 
3671 1 41.6785 34.191 -1.42081 11.4882 5 
3672 1 44.2392 33.3813 -2.3357 5.66141 5 
3673 1 -5.66476 32.8014 -0.529614 6.84475 5 
39555 3 47.3535 7.04898 0.325326 9.01024 5 
3675 1 -3.7589 34.7455 -2.04704 0.777424 5 
3676 1 -1.44705 34.2693 -0.455687 7.47142 5 
3679 1 0.329434 18.6479 -7.19228 0.0136881 1 
3680 1 1.58322 20.8009 -5.85614 0.0210105 1 
3681 1 1.92797 20.5418 -8.66303 0.00250101 1 
3682 1 4.14109 20.0359 -6.91421 0.00366752 1 
3683 1 3.19839 22.7075 -7.29748 0.0113829 1 
3684 1 5.42786 22.2073 -5.5223 0.0317294 1 
3685 1 5.74276 21.9348 -8.34705 0.00383507 1 
3686 1 7.95901 21.4427 -6.54819 0.0250126 1 
3687 1 7.01499 24.1091 -6.96953 0.0132292 1 
3688 1 9.22261 23.5976 -5.15981 0.0441809 1 
3689 1 9.52772 23.3204 -8.03315 0.00352864 1 
3690 1 11.7363 22.8162 -6.28003 0.00707845 1 
3691 1 10.7722 25.4883 -6.67983 0.0104409 1 
3692 1 12.9747 24.9914 -4.97524 0.0425642 1 
3693 1 13.3066 24.7001 -7.79141 0.00465099 1 
3694 1 15.5282 24.1963 -6.07184 0.0333214 1 
3695 1 14.5718 26.8753 -6.47282 0.0362265 1 
3696 1 16.8424 26.3745 -4.83255 0.470586 1 
3697 1 17.1326 26.0915 -7.55147 0.0388301 1 
3698 1 19.3688 25.6033 -5.73334 0.0536349 1 
3699 1 18.4209 28.2771 -6.14268 0.0321063 1 
3700 1 20.6549 27.7468 -4.3444 0.0925076 1 
3701 1 20.9213 27.4724 -7.21172 0.00522309 1 
3702 1 23.1079 26.95 -5.43778 0.0306737 1 
3703 1 22.1798 29.6305 -5.82545 0.0205621 1 
3704 1 24.3199 29.1059 -4.07293 0.164824 1 
3705 1 24.6767 28.8346 -6.95139 0.0141958 1 
3706 1 26.8676 28.3156 -5.29928 0.0774825 1 
3707 1 25.9213 30.9944 -5.59835 0.0462755 1 
3708 1 28.1306 30.5281 -3.97313 0.269361 1 
3709 1 28.499 30.2317 -6.71453 0.0302759 1 
3710 1 30.7538 29.7451 -5.04651 0.274864 1 
3711 1 29.803 32.4179 -5.22411 0.165004 1 
3712 1 32.0459 31.9397 -3.43183 1.1608 5 
3713 1 32.3335 31.6538 -6.31664 0.0411009 1 
3714 1 34.5242 31.1425 -4.5271 0.0960674 1 
3715 1 33.6079 33.8183 -4.87739 0.0369348 1 
3716 1 35.8277 33.345 -3.14602 0.442588 1 
3717 1 36.0911 33.0246 -6.02802 0.0140546 1 
3718 1 38.2816 32.5108 -4.33763 0.250444 1 
3719 1 37.328 35.2212 -4.66031 0.123168 1 
3720 1 39.5799 34.7609 -3.10623 6.20602 5 
3721 1 39.8784 34.4003 -5.84305 0.0536233 1 
3722 1 42.129 33.9455 -4.13275 0.121258 1 
3726 1 -5.99092 35.2597 -3.69903 0.0722152 1 
3734 1 0.984048 23.2253 -9.02321 0.00109878 1 
3735 1 1.30738 22.9463 -11.8507 0.000168445 1 
3736 1 3.5228 22.4386 -10.1066 0.00119835 1 
3737 1 2.57305 25.1165 -10.4723 0.000491574 1 
3738 1 4.79306 24.6129 -8.7323 0.005519 1 
3739 1 5.10588 24.331 -11.556 0.000331629 1 
3740 1 7.32056 23.8263 -9.80167 0.00104116 1 
3741 1 6.37093 26.5053 -10.174 0.0011816 1 
3742 1 8.5778 26.0011 -8.42138 0.0016392 1 
3743 1 8.89394 25.7153 -11.2644 0.000220261 1 
3744 1 11.0986 25.2072 -9.52096 0.00115498 1 
3745 1 10.155 27.8883 -9.89409 0.000886829 1 
3746 1 12.3537 27.3786 -8.167 0.00545002 1 
3747 1 12.6818 27.0968 -10.9946 0.000630663 1 
3748 1 14.8975 26.5928 -9.26723 0.00354057 1 
3749 1 13.9496 29.2684 -9.63491 0.00260685 1 
3750 1 16.1765 28.7675 -7.88706 0.00982958 1 
3751 1 16.4859 28.4833 -10.7172 0.000390214 1 
3752 1 18.7094 27.9828 -8.97381 0.00306001 1 
3753 1 17.7599 30.6542 -9.35021 0.00155438 1 
3754 1 19.977 30.1501 -7.57756 0.00949319 1 
3755 1 20.2827 29.8659 -10.4281 0.000922305 1 
3756 1 22.4877 29.3554 -8.68136 0.00169593 1 
3757 1 21.5468 32.0303 -9.05669 0.00117283 1 
3758 1 23.7428 31.5171 -7.29693 0.015549 1 
3759 1 24.07 31.2433 -10.1465 0.00139416 1 
3760 1 26.276 30.7329 -8.42006 0.00570486 1 
3761 1 25.3401 33.4038 -8.78116 0.00222374 1 
3762 1 27.5594 32.8887 -7.03176 0.0232335 1 
3763 1 27.8805 32.6294 -9.85898 0.00225346 1 
3764 1 30.1073 32.1382 -8.09014 0.0176629 1 
3765 1 29.162 34.7968 -8.48862 0.0170726 1 
3766 1 31.3891 34.3049 -6.66536 0.0415783 1 
3767 1 31.6839 34.0267 -9.53703 0.00414661 1 
3768 1 33.8906 33.531 -7.76558 0.00656797 1 
3771 1 35.4567 35.4128 -9.25053 0.00217833 1 
3772 1 37.658 34.9076 -7.52041 0.00863389 1 
3789 1 0.359894 25.6226 -12.2154 0.000188304 1 
3791 1 2.89077 24.8355 -13.3037 5.94053e-05 1 
3792 1 1.94291 27.5107 -13.6747 4.13207e-05 1 
3793 1 4.157 27.0068 -11.9259 0.000272898 1 
3794 1 4.4716 26.7242 -14.7613 2.60657e-05 1 
3795 1 6.68425 26.2202 -13.0128 8.90902e-05 1 
3796 1 5.73758 28.8965 -13.388 6.16904e-05 1 
3797 1 7.94925 28.3931 -11.6397 0.00022757 1 
3798 1 8.26345 28.1086 -14.476 2.55718e-05 1 
3799 1 10.4733 27.6035 -12.7318 0.000113066 1 
3800 1 9.52758 30.2815 -13.1039 7.18472e-05 1 
3801 1 11.7361 29.7759 -11.3619 0.000602242 1 
3802 1 12.0549 29.4924 -14.1963 5.32471e-05 1 
3803 1 14.2679 28.9869 -12.4582 0.000183378 1 
3804 1 13.3201 31.6648 -12.8294 0.000151638 1 
3805 1 15.5374 31.1597 -11.0947 0.00074537 1 
3806 1 15.8517 30.8767 -13.9193 5.35585e-05 1 
3807 1 18.0681 30.3715 -12.1775 0.000124028 1 
3808 1 17.1199 33.0497 -12.5507 0.000105639 1 
3809 1 19.3364 32.5427 -10.8073 0.00034651 1 
3810 1 19.6493 32.2605 -13.6365 3.82207e-05 1 
3811 1 21.8623 31.7528 -11.8922 0.000179069 1 
3812 1 20.9161 34.4307 -12.2644 9.28134e-05 1 
3813 1 23.1277 33.9187 -10.5211 0.000384051 1 
3814 1 23.4463 33.6426 -13.3506 5.49062e-05 1 
3815 1 25.6612 33.1346 -11.6065 0.000304687 1 
3817 1 26.9332 35.3022 -10.2345 0.00113085 1 
3818 1 27.2473 35.0283 -13.0594 0.000158563 1 
3819 1 29.4667 34.5253 -11.308 0.00105752 1 
3850 1 7.31675 30.7858 -14.8488 2.64926e-05 1 
3854 1 11.1079 32.1701 -14.5683 4.17884e-05 1 
3858 1 14.9036 33.5545 -14.2902 2.88856e-05 1 
3862 1 18.7017 34.9384 -14.0077 1.81073e-05 1 
3868 1 25.0303 35.5337 -14.8065 4.15986e-05 1 
4580 1 1.10756 8.95078 -1.91744 6.53156 5 
4581 1 2.59721 11.0183 -0.643014 6.89644 5 
4582 1 5.24118 10.552 -1.72705 8.41578 5 
4583 1 7.07069 12.4091 -0.601062 11.2089 5 
4584 1 12.4976 13.3674 -1.0597 5.6974 5 
4585 1 16.6672 14.9826 -0.826802 6.40891 5 
4586 1 0.266939 11.6522 -2.18284 0.349189 1 
4587 1 0.614521 11.3965 -5.00525 0.018485 1 
4588 1 2.84111 10.8696 -3.34538 0.338117 1 
4589 1 1.8904 13.5456 -3.627 0.0877609 1 
4590 1 4.20381 13.0968 -1.97742 1.89001 5 
4591 1 4.44084 12.7931 -4.75111 0.0517138 1 
4592 1 6.72021 12.3812 -3.1926 5.7415 5 
4593 1 5.68591 15.0173 -3.34615 0.24365 1 
4594 1 7.93078 14.6673 -1.63323 6.59694 5 
4595 1 8.28155 14.2511 -4.44881 0.0711025 1 
4596 1 10.3975 13.7697 -2.6773 7.17328 5 
4597 1 9.53992 16.4702 -3.00361 0.228748 1 
4598 1 11.6877 16.017 -1.17837 5.15309 5 
4599 1 12.0632 15.6235 -4.04815 0.0677678 1 
4600 1 14.2819 15.1506 -2.35854 0.439761 1 
4601 1 13.3528 17.8526 -2.47621 2.28947 5 
4602 1 15.875 17.5399 -1.06165 5.32798 5 
4603 1 15.862 17.0229 -3.81476 0.598134 1 
4604 1 18.204 16.6314 -2.33956 9.21003 5 
4605 1 17.5787 19.4243 -2.1265 11.4162 5 
4606 1 19.7241 18.3897 -3.70068 6.50541 5 
4607 1 20.9595 17.5296 -1.29492 12.217 5 
4608 1 20.629 20.5069 -2.19567 9.43033 5 
4609 1 22.5943 19.7503 -0.549766 8.08245 5 
4610 1 23.3319 19.6732 -3.26453 1.09155 5 
4611 1 25.3794 19.1228 -1.26322 4.69161 5 
4612 1 24.6058 21.8592 -1.99346 1.07748 5 
4613 1 26.8179 21.384 -0.431206 7.6455 5 
4614 1 27.1988 21.0583 -3.08202 0.347102 1 
4615 1 29.5105 20.6902 -1.12984 9.53275 5 
4616 1 28.5282 23.3288 -1.86432 6.53181 5 
4617 1 31.1002 22.5725 -2.57589 9.26474 5 
4618 1 33.1579 21.7206 -0.578147 9.78453 5 
4619 1 31.1362 25.8755 -0.618181 11.9324 5 
4620 1 34.7733 23.845 -2.23043 5.00398 5 
4621 1 37.2553 23.4183 -0.526864 7.03485 5 
4622 1 35.8325 26.117 -1.08626 3.43157 5 
4623 1 38.6091 25.32 -2.22381 0.66275 1 
4624 1 41.0269 25.1973 -0.589115 8.28721 5 
4625 1 39.9431 27.6496 -1.0123 4.8938 5 
4626 1 42.4654 26.7452 -2.22823 10.0792 5 
4627 1 46.2093 27.9641 -1.37969 5.46598 5 
4628 1 -1.79692 29.4382 -1.26591 4.14279 5 
4629 1 2.2212 13.2915 -6.45782 0.00403584 1 
4630 1 1.27475 15.9637 -6.82702 0.00533725 1 
4631 1 3.46539 15.454 -5.08978 0.0245189 1 
4632 1 3.82068 15.1901 -7.91293 0.00207419 1 
4633 1 6.03987 14.6933 -6.16348 0.0202731 1 
4634 1 5.0835 17.3635 -6.56216 0.0160544 1 
4635 1 7.30936 16.8926 -4.81441 0.0371737 1 
4636 1 7.63846 16.5961 -7.60892 0.0053454 1 
4637 1 9.86266 16.1193 -5.83314 0.013737 1 
4638 1 8.91385 18.7805 -6.19141 0.0144972 1 
4639 1 11.1461 18.295 -4.4216 0.0853558 1 
4640 1 11.4344 17.9902 -7.28043 0.00319813 1 
4641 1 13.6333 17.4919 -5.48539 0.088753 1 
4642 1 12.7117 20.1551 -5.89386 0.0097875 1 
4643 1 14.9612 19.6517 -4.1624 0.423357 1 
4644 1 15.2142 19.3619 -7.01945 0.0110991 1 
4645 1 17.4382 18.8707 -5.25772 0.465563 1 
4646 1 16.4795 21.5444 -5.68157 0.0418395 1 
4647 1 18.7007 21.114 -4.00247 5.73952 5 
4648 1 19.0179 20.7476 -6.7677 0.01514 1 
4649 1 21.2502 20.2536 -5.04717 0.168586 1 
4650 1 20.2971 22.94 -5.38475 0.0290856 1 
4651 1 22.4515 22.4136 -3.61665 0.123107 1 
4652 1 22.8015 22.1182 -6.48368 0.00815559 1 
4653 1 24.9745 21.5683 -4.75631 0.0412138 1 
4654 1 24.0464 24.2664 -5.09651 0.0206378 1 
4655 1 26.234 23.7371 -3.39975 0.279575 1 
4656 1 26.5767 23.4677 -6.22365 0.0202042 1 
4657 1 28.8381 22.985 -4.52774 0.158773 1 
4658 1 27.8514 25.6147 -4.94593 0.189 1 
4659 1 30.1629 25.2664 -3.08644 9.00744 5 
4660 1 30.4183 24.8835 -5.9312 0.0254705 1 
4661 1 32.6532 24.3983 -4.10854 6.08081 5 
4662 1 31.6926 27.0761 -4.57145 5.50619 5 
4663 1 33.3667 26.5331 -2.32716 10.4834 5 
4664 1 34.1963 26.2949 -5.55245 0.450908 1 
4665 1 36.2936 25.7742 -3.81209 0.402811 1 
4666 1 35.39 28.437 -4.10233 0.427976 1 
4667 1 37.5519 27.9631 -2.42386 0.860971 1 
4668 1 37.9206 27.6621 -5.32085 0.0594654 1 
4669 1 40.163 27.2026 -3.70681 0.389131 1 
4670 1 39.2252 29.8143 -4.059 0.627442 1 
4671 1 41.7174 29.5221 -2.04374 9.64191 5 
4672 1 41.8081 29.0499 -5.02745 0.286692 1 
4673 1 44.124 28.566 -3.30806 5.9639 5 
4674 1 43.0898 31.236 -3.74961 5.86943 5 
4675 1 44.791 30.6273 -1.52252 10.2199 5 
4676 1 45.621 30.4399 -4.70205 0.455154 1 
4677 1 -4.12208 29.9059 -2.90938 0.357132 1 
4678 1 -5.0606 32.5453 -3.30991 0.38846 1 
4679 1 -2.91721 32.0939 -1.34345 3.82313 5 
4680 1 -2.51105 31.7898 -4.37654 0.158891 1 
4681 1 -0.255966 31.3246 -2.73873 0.331374 1 
4682 1 -1.18263 33.9345 -3.13928 0.298928 1 
4683 1 1.61056 15.698 -9.65767 0.000619211 1 
4684 1 0.66477 18.3761 -10.0297 0.000584285 1 
4685 1 2.86985 17.8653 -8.29095 0.0030133 1 
4686 1 3.20122 17.5913 -11.1107 0.000335777 1 
4687 1 5.41684 17.0892 -9.36308 0.00165104 1 
4688 1 4.47021 19.7629 -9.73226 0.000913359 1 
4689 1 6.69156 19.267 -7.97376 0.00536726 1 
4690 1 7.00439 18.9816 -10.8049 0.000657063 1 
4691 1 9.22 18.4847 -9.04246 0.00167728 1 
4692 1 8.27 21.1541 -9.41229 0.00290722 1 
4693 1 10.4815 20.6544 -7.64464 0.00411861 1 
4694 1 10.792 20.3661 -10.5035 0.000790659 1 
4695 1 13.0019 19.8655 -8.75403 0.00150644 1 
4696 1 12.0499 22.5329 -9.13439 0.00127143 1 
4697 1 14.2588 22.0325 -7.38475 0.0107132 1 
4698 1 14.5793 21.7463 -10.2317 0.000882 1 
4699 1 16.7959 21.2477 -8.49735 0.00133527 1 
4700 1 15.8468 23.9153 -8.8821 0.00306919 1 
4701 1 18.0739 23.4273 -7.12497 0.0119811 1 
4702 1 18.3803 23.132 -9.96259 0.000756637 1 
4703 1 20.5953 22.6307 -8.22257 0.00219779 1 
4704 1 19.6559 25.3044 -8.5901 0.00466988 1 
4705 1 21.8594 24.8001 -6.82308 0.0127662 1 
4706 1 22.1723 24.5114 -9.68065 0.00150492 1 
4707 1 24.3753 23.9966 -7.94727 0.00274206 1 
4708 1 23.4285 26.675 -8.30726 0.0036079 1 
4709 1 25.6194 26.1505 -6.5855 0.0194304 1 
4710 1 25.9581 25.8842 -9.41938 0.00286108 1 
4711 1 28.1758 25.367 -7.70856 0.0223455 1 
4712 1 27.2168 28.0532 -8.08127 0.0153527 1 
4713 1 29.4574 27.5436 -6.42496 0.148125 1 
4714 1 29.7788 27.2771 -9.15933 0.0174957 1 
4715 1 32.0065 26.782 -7.37403 0.015313 1 
4716 1 31.063 29.4658 -7.78201 0.0352476 1 
4717 1 33.2853 28.9676 -5.98226 0.0682648 1 
4718 1 33.5797 28.6784 -8.81817 0.00575943 1 
4719 1 35.7698 28.1782 -7.045 0.0274806 1 
4720 1 34.8356 30.8577 -7.40893 0.0084939 1 
4721 1 36.9882 30.3311 -5.61796 0.154556 1 
4722 1 37.3439 30.0615 -8.51115 0.0122072 1 
4723 1 39.5566 29.5445 -6.82114 0.0445518 1 
4724 1 38.5963 32.2205 -7.1673 0.025621 1 
4725 1 40.8478 31.7186 -5.53246 0.135976 1 
4726 1 41.1597 31.4437 -8.28001 0.0129836 1 
4727 1 43.3952 30.9372 -6.5231 0.0146628 1 
4728 1 42.4413 33.6281 -6.90738 0.0141889 1 
4729 1 44.6664 33.1126 -5.14833 0.0576903 1 
4730 1 44.9684 32.8288 -7.96753 0.00317371 1 
4731 1 -4.68307 32.3117 -6.1985 0.016303 1 
4732 1 -5.64005 34.9926 -6.57243 0.00957295 1 
4733 1 -3.44632 34.4425 -4.82481 0.0352685 1 
4734 1 -3.11984 34.1958 -7.67643 0.00335017 1 
4735 1 -0.908696 33.679 -5.9505 0.0189789 1 
4737 1 0.98811 18.0975 -12.857 5.30299e-05 1 
4738 1 2.25473 20.2679 -11.4829 0.000299789 1 
4739 1 2.5732 19.9872 -14.3097 5.77217e-05 1 
4740 1 4.78831 19.4828 -12.5599 0.000168384 1 
4741 1 3.8398 22.1588 -12.9331 0.000148548 1 
4742 1 6.05558 21.6545 -11.1797 0.000543343 1 
4743 1 6.36922 21.3718 -14.0143 8.37931e-05 1 
4744 1 8.58195 20.8684 -12.2594 0.000361311 1 
4745 1 7.63291 23.5433 -12.6385 0.000111405 1 
4746 1 9.84239 23.038 -10.8843 0.000488535 1 
4747 1 10.159 22.7548 -13.7252 8.12937e-05 1 
4748 1 12.3688 22.2498 -11.9774 0.000218894 1 
4749 1 11.4199 24.9253 -12.3572 0.000193031 1 
4750 1 13.6303 24.4193 -10.6178 0.000672019 1 
4751 1 13.95 24.1374 -13.4485 9.59536e-05 1 
4752 1 16.1636 23.6328 -11.7073 0.000262402 1 
4753 1 15.2159 26.3096 -12.0857 0.00030589 1 
4754 1 17.4356 25.8061 -10.3486 0.00221074 1 
4755 1 17.7474 25.5219 -13.1722 0.00011178 1 
4756 1 19.9623 25.0174 -11.4274 0.000307089 1 
4757 1 19.0157 27.695 -11.8036 0.000209722 1 
4758 1 21.2281 27.1881 -10.0566 0.000654468 1 
4759 1 21.5425 26.9054 -12.8907 9.26272e-05 1 
4760 1 23.7516 26.397 -11.1494 0.000623349 1 
4761 1 22.8064 29.0759 -11.5205 0.00038623 1 
4762 1 25.0105 28.5651 -9.78677 0.00254807 1 
4763 1 25.3373 28.2888 -12.612 0.000345004 1 
4764 1 27.5515 27.7822 -10.881 0.00207033 1 
4765 1 26.6052 30.4603 -11.2405 0.000683142 1 
4766 1 28.8257 29.9594 -9.50741 0.004125 1 
4767 1 29.1424 29.6797 -12.3233 0.000571691 1 
4768 1 31.3645 29.1803 -10.5814 0.00376705 1 
4769 1 30.4142 31.8553 -10.934 0.00174643 1 
4770 1 32.6333 31.3607 -9.17702 0.00530917 1 
4771 1 32.9402 31.0714 -12.0193 0.000632535 1 
4772 1 35.1487 30.5681 -10.2654 0.00110987 1 
4773 1 34.2007 33.2439 -10.6303 0.00129823 1 
4774 1 36.402 32.7386 -8.88703 0.00237897 1 
4775 1 36.7245 32.4545 -11.7301 0.000333843 1 
4776 1 38.9328 31.9479 -9.99473 0.00207434 1 
4777 1 37.9848 34.6245 -10.3594 0.000869238 1 
4778 1 40.2018 34.1198 -8.63406 0.00385774 1 
4779 1 40.5215 33.8388 -11.4552 0.000286964 1 
4780 1 42.745 33.3371 -9.71798 0.00139017 1 
4782 1 44.0137 35.5106 -8.33626 0.00341477 1 
4783 1 44.3235 35.2242 -11.1698 0.000217732 1 
4784 1 -5.32716 34.7145 -9.42066 0.000768968 1 
4793 1 1.62485 22.664 -14.6804 3.80359e-05 1 
4797 1 5.42009 24.048 -14.3888 3.62128e-05 1 
4801 1 9.21057 25.4315 -14.1018 4.1554e-05 1 
4805 1 13.0021 26.8145 -13.8243 8.06326e-05 1 
4807 1 15.5329 26.0267 -14.9135 3.27885e-05 1 
4809 1 16.7996 28.1993 -13.5457 1.92776e-05 1 
4811 1 19.3295 27.4112 -14.6332 1.64441e-05 1 
4813 1 20.596 29.5831 -13.263 7.11296e-05 1 
4815 1 23.1253 28.7953 -14.351 5.2635e-05 1 
4816 1 22.179 31.4725 -14.7225 2.09485e-05 1 
4817 1 24.392 30.9662 -12.9791 0.000123186 1 
4819 1 26.9249 30.1818 -14.0652 0.000102741 1 
4820 1 25.9781 32.8576 -14.4345 5.25721e-05 1 
4821 1 28.195 32.3541 -12.6876 0.000283809 1 
4823 1 30.7251 31.5717 -13.7694 0.000202135 1 
4824 1 29.7769 34.2457 -14.1403 0.000115992 1 
4825 1 31.9913 33.7444 -12.3857 0.00049014 1 
4827 1 34.5159 32.9588 -13.4752 0.000187987 1 
4829 1 35.7766 35.1295 -12.0984 0.000351979 1 
4830 1 36.095 34.8466 -14.9371 5.25536e-05 1 
4831 1 38.3066 34.3425 -13.1939 0.000112561 1 
5656 1 2.92866 3.58021 -1.20436 5.97245 5 
5657 1 4.84821 5.00388 -0.00410458 9.10767 5 
5658 1 9.99187 5.67944 -0.52985 7.12352 5 
5659 1 14.5219 7.56648 -0.326097 10.5422 5 
5660 1 0.778001 4.12789 -2.83475 1.00388 5 
5661 1 1.99075 6.30537 -1.21428 7.76306 5 
5662 1 2.45087 6.07765 -4.19532 0.191608 1 
5663 1 4.62522 5.64356 -2.57294 2.51546 5 
5664 1 3.74667 8.29784 -2.64206 3.71701 5 
5665 1 6.08719 7.60031 -1.03968 11.6267 5 
5666 1 6.28153 7.54266 -3.90582 0.585078 1 
5667 1 8.46792 7.01957 -2.34639 10.339 5 
5668 1 7.88833 9.87356 -2.15641 9.68983 5 
5669 1 9.56535 8.48465 -0.263538 7.62796 5 
5670 1 10.1589 8.88338 -3.53851 1.08937 5 
5671 1 12.2242 8.37949 -1.69594 5.3312 5 
5672 1 11.2576 11.0117 -2.04033 5.70867 5 
5673 1 13.7559 10.5323 -0.474012 6.79804 5 
5674 1 13.9244 10.2415 -3.27817 0.22809 1 
5675 1 16.3106 9.85225 -1.44462 6.65127 5 
5676 1 15.2604 12.4738 -2.09999 0.984012 1 
5677 1 17.7665 12.57 -0.501909 11.619 5 
5678 1 17.7487 11.6587 -3.1395 5.82144 5 
5679 1 19.9121 11.1586 -1.38148 11.3923 5 
5680 1 19.6289 14.5827 -1.01905 9.39598 5 
5681 1 21.5181 13.0046 -2.68416 1.92158 5 
5682 1 23.7602 12.5339 -0.769444 5.68381 5 
5683 1 22.6507 15.0226 -1.2722 5.42036 5 
5684 1 25.337 14.3113 -2.3733 0.569754 5 
5685 1 27.7584 13.8274 -0.801098 1.92809 5 
5686 1 26.6191 16.4804 -1.19553 1.13294 5 
5687 1 29.1295 15.733 -2.25627 0.231371 1 
5688 1 30.3898 17.8515 -1.12886 7.53359 5 
5689 1 32.953 17.1821 -2.0931 5.69075 5 
5690 1 32.9234 18.8889 -0.0690525 11.3553 5 
5691 1 36.611 18.5824 -1.55169 8.36235 5 
5692 1 38.0667 20.5095 -0.360843 9.89774 5 
5693 1 40.7117 20.0638 -1.45382 6.06224 5 
5694 1 42.8134 21.5563 -0.296514 9.40392 5 
5695 1 -3.94944 22.6748 -0.752091 5.0871 5 
5696 1 0.164105 24.0964 -0.542237 6.13533 5 
5697 1 0.3306 6.57358 -6.05714 0.0570327 1 
5698 1 1.55625 8.70574 -4.64532 0.148992 1 
5699 1 1.91833 8.46115 -7.47082 0.0129444 1 
5700 1 4.08503 7.94834 -5.64271 0.131038 1 
5701 1 3.17817 10.6126 -6.10102 0.0215724 1 
5702 1 5.41177 10.1096 -4.38588 0.612987 1 
5703 1 5.71885 9.83101 -7.16848 0.0329771 1 
5704 1 7.94475 9.35934 -5.30073 0.383294 1 
5705 1 7.01088 12.0094 -5.85671 0.153611 1 
5706 1 9.24414 11.5492 -4.00226 6.38213 5 
5707 1 9.53988 11.2408 -6.82694 0.0174713 1 
5708 1 11.7493 10.7496 -5.04036 0.0799501 1 
5709 1 10.8072 13.4383 -5.48856 0.0415489 1 
5710 1 12.9789 12.9155 -3.74013 0.235137 1 
5711 1 13.3209 12.6363 -6.55736 0.0120928 1 
5712 1 15.5167 12.1271 -4.84574 0.0582412 1 
5713 1 14.6049 14.8215 -5.16224 0.0356703 1 
5714 1 16.8825 14.3147 -3.46812 5.4415 5 
5715 1 17.1088 14.0032 -6.30835 0.0351215 1 
5716 1 19.3482 13.5229 -4.51929 1.44277 5 
5717 1 18.385 16.1821 -5.02547 0.206569 1 
5718 1 20.6612 15.6505 -3.30137 6.40858 5 
5719 1 20.9384 15.381 -6.04621 0.0444319 1 
5720 1 23.162 14.8487 -4.21894 0.123428 1 
5721 1 22.2011 17.5377 -4.62941 1.29912 5 
5722 1 24.2992 16.9767 -2.83772 1.02618 5 
5723 1 24.7135 16.7405 -5.7225 0.0301033 1 
5724 1 26.8768 16.2276 -3.96939 0.0434123 1 
5725 1 25.893 18.8994 -4.30609 0.195165 1 
5726 1 28.116 18.4417 -2.6927 0.355062 1 
5727 1 28.4667 18.1496 -5.46999 0.0302559 1 
5728 1 30.6749 17.6605 -3.82723 0.189605 1 
5729 1 29.7641 20.3655 -4.0588 0.146343 1 
5730 1 31.9444 19.847 -2.40643 5.30091 5 
5731 1 32.307 19.5725 -5.16319 0.0317912 1 
5732 1 34.5245 19.1117 -3.38482 2.23097 5 
5733 1 33.5869 21.7395 -3.64295 0.301601 1 
5734 1 35.7556 21.2518 -1.83882 4.49158 5 
5735 1 36.1095 20.9679 -4.79222 0.0267881 1 
5736 1 38.34 20.4661 -3.08786 0.35342 1 
5737 1 37.3696 23.1006 -3.39075 0.202103 1 
5738 1 39.7568 22.7103 -1.52038 6.38943 5 
5739 1 39.8856 22.3413 -4.51647 0.147012 1 
5740 1 42.1688 21.9061 -2.90545 5.4198 5 
5741 1 41.1432 24.5179 -3.29437 0.399957 1 
5742 1 43.4133 24.0845 -1.41033 9.57804 5 
5743 1 43.7157 23.772 -4.28089 0.133665 1 
5744 1 45.8778 23.2362 -2.49388 5.911 5 
5745 1 45.0364 25.9033 -2.83144 0.901748 5 
5746 1 -4.65739 25.3814 -0.884202 4.06975 5 
5747 1 -4.35903 25.0963 -3.90976 0.0559657 1 
5748 1 -2.13823 24.5899 -2.17554 0.317363 1 
5749 1 -3.0758 27.2284 -2.47209 0.322221 1 
5750 1 -0.592278 26.8568 -0.56092 7.36575 5 
5751 1 -0.587825 26.4689 -3.62467 0.195328 1 