ITEM: TIMESTEP
0
ITEM: NUMBER OF ATOMS
3978
ITEM: BOX BOUNDS xy xz yz pp pp ss
0.0000000000000000e+00 4.9133749377999997e+01 4.4000372580000002e+00
0.0000000000000000e+00 4.9902125927999997e+01 0.0000000000000000e+00
-1.3789820003381260e+02 1.5244127595566206e+02 0.0000000000000000e+00
ITEM: ATOMS id type x y z c_csym c_cna 
1 1 40.0377 0.144934 -0.763581 13.8509 5 
2 1 36.617 49.7012 -2.48462 4.03582 5 
3 1 33.9128 49.7638 -1.11503 4.98979 5 
4 1 41.885 49.1669 -5.09793 0.25906 1 
5 1 39.3216 49.3417 -3.72909 5.53428 5 
6 1 42.0779 49.5729 -2.38788 6.85896 5 
7 1 35.3693 0.301421 -1.23374 5.06505 5 
8 1 40.6967 47.2844 -1.32328 12.7538 5 
9 1 44.4435 48.9227 -6.38821 0.0438377 1 
10 1 44.4384 49.4479 -3.6447 0.440365 1 
11 1 42.6781 47.0581 -3.27328 5.37509 5 
12 1 43.5044 45.0926 -1.16259 8.26274 5 
13 1 17.6709 0.144934 -0.763581 13.8509 5 
14 1 26.8278 49.514 -3.31696 6.07718 5 
15 1 24.5909 49.7124 -1.77116 7.30146 5 
16 1 24.7829 47.2093 -0.197586 6.61416 5 
17 1 31.9605 49.06 -5.6741 0.0198291 1 
18 1 29.3862 49.2742 -4.51759 0.122087 1 
19 1 31.6994 49.5523 -2.856 0.295751 1 
20 1 29.0533 49.8558 -1.81335 5.99858 5 
21 1 30.0341 47.2965 -2.44949 0.555209 1 
22 1 27.428 47.6 -1.18832 7.52449 5 
23 1 37.0815 48.6227 -8.14862 0.00245787 1 
24 1 34.5209 48.8423 -6.8846 0.0114848 1 
25 1 36.8806 49.1589 -5.32603 0.0629393 1 
26 1 34.3012 49.3291 -4.00723 0.137923 1 
27 1 35.2229 46.832 -4.93625 0.127821 1 
28 1 32.6516 47.0682 -3.70306 0.185074 1 
29 1 35.065 47.3147 -1.90077 6.48486 5 
30 1 33.3194 45.0682 -1.92662 5.3469 5 
31 1 30.5382 45.1788 -0.772166 10.0628 5 
32 1 39.6417 0.0758521 -13.8282 0.000302944 1 
33 1 42.2039 48.1683 -10.6932 0.0015396 1 
34 1 39.6421 48.3934 -9.41229 0.00223582 1 
35 1 42.0231 48.6724 -7.88169 0.0120589 1 
36 1 39.4655 48.8992 -6.57769 0.0275889 1 
37 1 40.3734 46.3653 -7.50897 0.0377883 1 
38 1 37.8101 46.5944 -6.27858 0.0495569 1 
39 1 40.217 46.8465 -4.61478 0.937297 5 
40 1 37.5832 47.1375 -3.51992 2.36409 5 
41 1 38.5834 44.575 -4.37643 0.195164 1 
42 1 36.0014 44.8448 -3.00786 1.4589 5 
43 1 38.6465 45.2943 -1.69559 7.6342 5 
44 1 36.7655 42.8916 -1.12984 4.20542 5 
45 1 42.9381 46.1261 -8.82788 0.00499928 1 
46 1 42.7768 46.617 -6.02943 0.0556548 1 
47 1 43.6809 44.0807 -6.94528 0.0393227 1 
48 1 41.1449 44.3357 -5.6696 0.0826495 1 
49 1 43.6433 44.5665 -4.06223 0.689167 1 
50 1 41.1137 44.7519 -2.84389 1.55401 5 
51 1 41.8505 42.268 -3.98208 7.0185 5 
52 1 39.2065 42.5871 -2.47165 2.79993 5 
53 1 41.539 42.1282 -1.34988 12.3488 5 
54 1 40.1243 39.908 -0.404292 5.94035 5 
55 1 44.4225 42.0345 -5.0803 0.084047 1 
56 1 44.1613 42.4891 -2.26547 7.43167 5 
57 1 43.0971 39.8542 -1.1416 8.85171 5 
58 1 11.546 49.7638 -1.11503 4.98979 5 
59 1 16.9548 49.3417 -3.72909 5.53428 5 
60 1 14.2501 49.7012 -2.48462 4.03582 5 
61 1 13.0025 0.301421 -1.23374 5.06505 5 
62 1 22.0767 48.9227 -6.38821 0.0438377 1 
63 1 19.5181 49.1669 -5.09793 0.25906 1 
64 1 22.0715 49.4479 -3.6447 0.440365 1 
65 1 19.711 49.5729 -2.38788 6.85896 5 
66 1 20.3112 47.0581 -3.27328 5.37509 5 
67 1 18.3298 47.2844 -1.32328 12.7538 5 
68 1 27.1991 48.4916 -8.86101 0.00206631 1 
69 1 24.6328 48.7153 -7.62363 0.0043301 1 
70 1 27.024 48.9883 -6.07404 0.0168117 1 
71 1 24.5031 49.2066 -4.81671 0.176173 1 
72 1 25.3736 46.6707 -5.75116 0.0243086 1 
73 1 22.8555 46.849 -4.5392 0.684292 1 
74 1 25.2114 47.1741 -2.93827 6.05132 5 
75 1 22.641 47.4562 -1.88636 11.8931 5 
76 1 23.8741 44.8215 -2.00125 10.3082 5 
77 1 21.1376 45.0926 -1.16259 8.26274 5 
78 1 34.1587 49.8585 -14.4379 0.000186209 1 
79 1 32.333 48.0456 -11.312 0.00075947 1 
80 1 29.7685 48.2689 -10.0861 0.00143285 1 
81 1 32.1535 48.5522 -8.49471 0.00294123 1 
82 1 29.5885 48.772 -7.28888 0.00995473 1 
83 1 30.4961 46.24 -8.18672 0.00556097 1 
84 1 27.9302 46.4574 -6.95811 0.00941533 1 
85 1 30.2927 46.7581 -5.34691 0.0561505 1 
86 1 27.731 46.9491 -4.11329 0.136774 1 
87 1 28.6164 44.4309 -5.08019 0.0474353 1 
88 1 26.0416 44.652 -3.82944 5.53486 5 
89 1 28.2767 44.9793 -2.17728 5.42868 5 
90 1 26.6344 42.8306 -1.6635 5.93332 5 
91 1 23.926 42.3644 -0.483508 6.59003 5 
94 1 34.6978 0.0177592 -14.1206 0.000123263 1 
95 1 37.4506 47.5995 -13.8037 0.000132186 1 
96 1 34.8921 47.8226 -12.5509 0.000478728 1 
97 1 37.2677 48.1092 -10.9778 0.000245855 1 
98 1 34.7112 48.3312 -9.72293 0.00193464 1 
99 1 35.6214 45.792 -10.6561 0.00206905 1 
100 1 33.0629 46.0157 -9.41353 0.00251535 1 
101 1 35.4315 46.3085 -7.80843 0.0144448 1 
102 1 32.8676 46.5336 -6.57358 0.0131907 1 
103 1 33.7937 43.9906 -7.52835 0.00624184 1 
104 1 31.2088 44.2209 -6.32281 0.0243871 1 
105 1 33.574 44.5171 -4.70784 0.0475442 1 
106 1 30.9323 44.7639 -3.53122 0.261185 1 
107 1 31.9528 42.1684 -4.53305 0.23501 1 
108 1 29.2856 42.4601 -3.1243 5.72182 5 
109 1 31.8084 42.726 -1.92701 6.63603 5 
110 1 30.3056 40.4654 -1.40537 5.41905 5 
111 1 27.8349 40.6486 -0.389904 8.84303 5 
118 1 42.3914 47.6588 -13.5071 0.000259233 1 
119 1 39.8267 47.8849 -12.2407 0.00038193 1 
120 1 40.7418 45.3405 -13.1844 0.000371837 1 
121 1 38.1797 45.5665 -11.9211 0.000105631 1 
122 1 40.5548 45.8532 -10.358 0.00319676 1 
123 1 37.9966 46.0778 -9.09164 0.0012384 1 
124 1 38.9068 43.5354 -10.0416 0.0010502 1 
125 1 36.3513 43.7677 -8.76307 0.00761343 1 
126 1 38.731 44.0502 -7.20258 0.00754701 1 
127 1 36.1656 44.2997 -5.89841 0.065185 1 
128 1 37.0843 41.7373 -6.89559 0.00996948 1 
129 1 34.5424 41.9528 -5.66686 0.0344816 1 
130 1 36.9131 42.2686 -4.06396 0.0791912 1 
131 1 34.4031 42.5089 -2.90727 0.293919 1 
132 1 35.3037 39.9054 -3.72323 0.134412 1 
133 1 32.7788 40.1264 -2.56725 0.317311 1 
134 1 33.2268 38.0409 -0.619933 2.99059 5 
135 1 43.3097 45.1127 -14.4479 0.000132418 1 
136 1 43.1226 45.6215 -11.6364 0.000656264 1 
137 1 44.0416 43.0766 -12.577 0.00017784 1 
138 1 41.4714 43.3059 -11.3136 0.00048969 1 
139 1 43.8569 43.5837 -9.76442 0.00124632 1 
140 1 41.2844 43.8215 -8.49735 0.00860641 1 
141 1 42.2025 41.2653 -9.45285 0.00399731 1 
142 1 39.632 41.501 -8.17391 0.00756556 1 
143 1 42.0194 41.7689 -6.67912 0.0814949 1 
144 1 39.4431 42.0116 -5.33761 0.133297 1 
145 1 40.3509 39.4724 -6.27639 0.0863979 1 
146 1 37.8393 39.7201 -4.98772 0.123516 1 
147 1 40.3144 39.9899 -3.28479 6.34117 5 
148 1 37.6956 40.2676 -2.12506 5.57348 5 
149 1 38.4035 37.681 -3.23648 6.21079 5 
150 1 35.8986 37.8951 -1.72096 6.09161 5 
151 1 37.9975 36.4074 -0.773914 6.2767 5 
152 1 42.9273 39.2257 -7.56547 0.0111215 1 
153 1 42.7479 39.7315 -4.74251 1.13948 5 
154 1 43.6622 37.184 -5.71392 0.060043 1 
155 1 41.0807 37.4277 -4.48315 0.449941 1 
156 1 43.4615 37.7936 -2.86842 3.68669 5 
157 1 40.6963 37.6288 -1.77854 7.21516 5 
158 1 42.0804 35.3919 -2.76868 4.54365 5 
159 1 40.4557 35.1558 -0.667842 2.27419 5 
160 1 44.5217 35.1161 -4.00052 0.537412 1 
161 1 44.4519 35.7762 -1.3888 11.2041 5 
162 1 42.9711 33.413 -0.763621 13.8509 5 
163 1 46.9578 49.7124 -1.77116 7.30146 5 
164 1 7.01935 49.2742 -4.51759 0.122087 1 
165 1 4.46097 49.514 -3.31696 6.07718 5 
166 1 6.68644 49.8558 -1.81335 5.99858 5 
167 1 5.06114 47.6 -1.18832 7.52449 5 
168 1 47.1498 47.2093 -0.197586 6.61416 5 
169 1 12.1541 48.8423 -6.8846 0.0114848 1 
170 1 9.59366 49.06 -5.6741 0.0198291 1 
171 1 11.9344 49.3291 -4.00723 0.137923 1 
172 1 9.33251 49.5523 -2.856 0.295751 1 
173 1 10.2847 47.0682 -3.70306 0.185074 1 
174 1 7.66729 47.2965 -2.44949 0.555209 1 
175 1 8.17138 45.1788 -0.772166 10.0628 5 
176 1 17.2753 48.3934 -9.41229 0.00223582 1 
177 1 14.7146 48.6227 -8.14862 0.00245787 1 
178 1 17.0986 48.8992 -6.57769 0.0275889 1 
179 1 14.5138 49.1589 -5.32603 0.0629393 1 
180 1 15.4433 46.5944 -6.27858 0.0495569 1 
181 1 12.8561 46.832 -4.93625 0.127821 1 
182 1 15.2164 47.1375 -3.51992 2.36409 5 
183 1 12.6982 47.3147 -1.90077 6.48486 5 
184 1 13.6345 44.8448 -3.00786 1.4589 5 
185 1 10.9525 45.0682 -1.92662 5.3469 5 
187 1 17.2748 0.0758521 -13.8282 0.000302944 1 
188 1 22.4091 47.9386 -11.9618 0.000620798 1 
189 1 19.837 48.1683 -10.6932 0.0015396 1 
190 1 22.2282 48.4426 -9.16665 0.00412829 1 
191 1 19.6562 48.6724 -7.88169 0.0120589 1 
192 1 20.5713 46.1261 -8.82788 0.00499928 1 
193 1 18.0065 46.3653 -7.50897 0.0377883 1 
194 1 20.4099 46.617 -6.02943 0.0556548 1 
195 1 17.8502 46.8465 -4.61478 0.937297 5 
196 1 18.7781 44.3357 -5.6696 0.0826495 1 
197 1 16.2165 44.575 -4.37643 0.195164 1 
198 1 18.7469 44.7519 -2.84389 1.55401 5 
199 1 16.2797 45.2943 -1.69559 7.6342 5 
200 1 16.8396 42.5871 -2.47165 2.79993 5 
201 1 14.3987 42.8916 -1.12984 4.20542 5 
204 1 29.2073 49.8022 -14.7681 0.000138817 1 
205 1 27.5554 47.4832 -14.4575 0.000124556 1 
206 1 24.9831 47.7106 -13.2135 0.000198057 1 
207 1 27.3759 47.9891 -11.6557 0.000435475 1 
208 1 24.8024 48.2152 -10.4158 0.000478524 1 
209 1 25.7209 45.6715 -11.3422 0.000507263 1 
210 1 23.1469 45.8956 -10.0964 0.00240073 1 
211 1 25.5441 46.1727 -8.54355 0.00301122 1 
212 1 22.9738 46.3902 -7.3146 0.0248695 1 
213 1 23.8787 43.8624 -8.20471 0.00884202 1 
214 1 21.3141 44.0807 -6.94528 0.0393227 1 
215 1 23.7112 44.3539 -5.36846 0.461591 1 
216 1 21.2764 44.5665 -4.06223 0.689167 1 
217 1 22.0556 42.0345 -5.0803 0.084047 1 
218 1 19.4836 42.268 -3.98208 7.0185 5 
219 1 21.7944 42.4891 -2.26547 7.43167 5 
220 1 19.1721 42.1282 -1.34988 12.3488 5 
221 1 20.7303 39.8542 -1.1416 8.85171 5 
222 1 17.7574 39.908 -0.404292 5.94035 5 
229 1 32.5104 47.5386 -14.1277 0.0002123 1 
230 1 29.9456 47.7635 -12.8906 0.000320127 1 
231 1 30.86 45.2201 -13.8196 0.000185595 1 
232 1 28.2925 45.4458 -12.5813 0.0002467 1 
233 1 30.681 45.7289 -11.0058 0.000811649 1 
234 1 28.1131 45.952 -9.77372 0.00118517 1 
235 1 29.0258 43.4117 -10.7043 0.000282606 1 
236 1 26.4517 43.6375 -9.46563 0.00143401 1 
237 1 28.8371 43.922 -7.89378 0.00243524 1 
238 1 26.2647 44.1427 -6.65244 0.0103437 1 
239 1 27.1769 41.6167 -7.59062 0.0208997 1 
240 1 24.5958 41.8417 -6.34871 0.0406228 1 
241 1 26.9382 42.1354 -4.74524 0.28225 1 
242 1 24.3704 42.4151 -3.43851 1.22574 5 
243 1 25.3354 39.8038 -4.61315 0.313476 1 
244 1 22.773 40.0213 -3.20222 5.66497 5 
245 1 25.3053 40.3388 -1.98303 11.8539 5 
246 1 23.6048 38.1577 -1.18052 11.1861 5 
257 1 35.8036 45.2802 -13.4877 0.000398838 1 
258 1 33.2443 45.5045 -12.2412 0.000538743 1 
259 1 34.1568 42.9607 -13.1807 0.000220219 1 
260 1 31.5942 43.186 -11.9408 0.000248369 1 
261 1 33.9768 43.474 -10.3572 0.000846088 1 
262 1 31.4113 43.6992 -9.1277 0.00181254 1 
263 1 32.3285 41.1517 -10.0663 0.000637312 1 
264 1 29.7563 41.3813 -8.82772 0.00472283 1 
265 1 32.1447 41.6631 -7.26785 0.0142584 1 
266 1 29.547 41.903 -6.00099 0.069034 1 
267 1 30.5129 39.3386 -6.98103 0.0128893 1 
268 1 27.9321 39.576 -5.81466 0.0692594 1 
269 1 30.3497 39.864 -4.20802 0.130743 1 
270 1 27.8009 40.1361 -3.09145 0.655537 1 
271 1 28.6682 37.5281 -4.02438 0.280644 1 
272 1 26.0547 37.7798 -2.72485 3.33976 5 
273 1 28.4149 38.0723 -1.42206 7.37259 5 
274 1 26.88 35.8211 -0.765322 7.10012 5 
285 1 38.3643 45.0554 -14.7448 8.00333e-05 1 
287 1 36.717 42.7358 -14.4302 0.00021119 1 
288 1 39.0936 43.0215 -12.8671 0.000204427 1 
289 1 36.5336 43.2486 -11.6036 0.00115522 1 
290 1 37.448 40.701 -12.5527 0.000311316 1 
291 1 34.8901 40.9262 -11.3022 0.000361556 1 
292 1 37.2639 41.2149 -9.72732 0.0017007 1 
293 1 34.7117 41.4419 -8.48245 0.00222171 1 
294 1 35.6241 38.8892 -9.41985 0.00112896 1 
295 1 33.0726 39.1132 -8.18967 0.00264594 1 
296 1 35.4538 39.4136 -6.59253 0.017529 1 
297 1 32.9151 39.6159 -5.37514 0.0318571 1 
298 1 33.7895 37.0704 -6.3046 0.0163234 1 
299 1 31.256 37.2805 -5.10634 0.0641262 1 
300 1 33.6102 37.5696 -3.45282 0.136666 1 
301 1 31.0225 37.8218 -2.38209 0.545947 1 
302 1 31.9314 35.2283 -3.09328 0.115471 1 
303 1 29.4013 35.498 -1.9267 0.762795 1 
309 1 41.6588 42.7946 -14.1298 0.000112537 1 
311 1 40.0097 40.4747 -13.8128 0.000125378 1 
312 1 42.3889 40.7582 -12.2607 0.000235512 1 
313 1 39.8225 40.986 -10.9935 0.000666673 1 
314 1 40.7386 38.4392 -11.9376 0.000435367 1 
315 1 38.1785 38.6649 -10.6727 0.000419128 1 
316 1 40.5492 38.9521 -9.11118 0.00356884 1 
317 1 37.9911 39.1766 -7.84192 0.00546769 1 
318 1 38.9052 36.6254 -8.79627 0.00366526 1 
319 1 36.3481 36.8481 -7.53361 0.00865055 1 
320 1 38.7088 37.1257 -5.97497 0.101388 1 
321 1 36.1078 37.3802 -4.73712 0.145785 1 
322 1 37.096 34.8041 -5.62299 0.0952616 1 
323 1 34.4657 35.044 -4.37486 0.0492386 1 
324 1 36.7621 35.3192 -2.87439 5.89162 5 
325 1 34.2394 35.5208 -1.43548 7.0865 5 
326 1 35.1503 33.0672 -2.48467 4.03566 5 
327 1 32.4462 33.1298 -1.11506 4.98975 5 
328 1 43.3064 38.2118 -13.2033 0.000235864 1 
329 1 43.1162 38.7216 -10.3901 0.00111806 1 
330 1 44.038 36.1743 -11.3404 0.000659944 1 
331 1 41.4668 36.4021 -10.0722 0.00134301 1 
332 1 43.849 36.6847 -8.53492 0.00405461 1 
333 1 41.2773 36.9124 -7.26177 0.0113139 1 
334 1 42.2 34.3572 -8.22265 0.0115207 1 
335 1 39.6313 34.595 -6.87852 0.0985527 1 
336 1 42.0239 34.8528 -5.45127 0.212664 1 
337 1 39.4714 35.0917 -3.88644 6.10964 5 
338 1 40.4183 32.5329 -5.09797 0.259046 1 
339 1 37.855 32.7076 -3.72914 5.53428 5 
340 1 40.6112 32.9388 -2.38796 6.85886 5 
341 1 38.3026 33.5695 -1.23377 5.06553 5 
342 1 39.23 30.6503 -1.32332 12.7539 5 
343 1 42.9769 32.2887 -6.38825 0.0438305 1 
344 1 42.9717 32.8138 -3.64473 0.440288 1 
345 1 43.7557 30.215 -4.53923 0.684254 1 
346 1 41.2114 30.4241 -3.27331 5.37511 5 
347 1 43.5412 30.8222 -1.8864 11.8931 5 
348 1 42.0378 28.4585 -1.16261 8.26286 5 
349 1 44.7743 28.1875 -2.00129 10.3081 5 
350 1 46.9997 48.7153 -7.62363 0.0043301 1 
351 1 46.87 49.2066 -4.81671 0.176173 1 
352 1 45.2224 46.849 -4.5392 0.684292 1 
353 1 45.0079 47.4562 -1.88636 11.8931 5 
354 1 7.40161 48.2689 -10.0861 0.00143285 1 
355 1 4.8322 48.4916 -8.86101 0.00206631 1 
356 1 7.22164 48.772 -7.28888 0.00995473 1 
357 1 4.65718 48.9883 -6.07404 0.0168117 1 
358 1 5.56333 46.4574 -6.95811 0.00941533 1 
359 1 47.7405 46.6707 -5.75116 0.0243086 1 
360 1 5.36419 46.9491 -4.11329 0.136774 1 
361 1 47.5782 47.1741 -2.93827 6.05132 5 
362 1 48.4084 44.652 -3.82944 5.53486 5 
363 1 46.241 44.8215 -2.00125 10.3082 5 
364 1 46.2928 42.3644 -0.483508 6.59003 5 
366 1 11.7919 49.8585 -14.4379 0.000186209 1 
367 1 12.5252 47.8226 -12.5509 0.000478728 1 
368 1 9.96611 48.0456 -11.312 0.00075947 1 
369 1 12.3444 48.3312 -9.72293 0.00193464 1 
370 1 9.78662 48.5522 -8.49471 0.00294123 1 
371 1 10.696 46.0157 -9.41353 0.00251535 1 
372 1 8.12928 46.24 -8.18672 0.00556097 1 
373 1 10.5007 46.5336 -6.57358 0.0131907 1 
374 1 7.92582 46.7581 -5.34691 0.0561505 1 
375 1 8.84199 44.2209 -6.32281 0.0243871 1 
376 1 6.24957 44.4309 -5.08019 0.0474353 1 
377 1 8.56548 44.7639 -3.53122 0.261185 1 
378 1 5.90982 44.9793 -2.17728 5.42868 5 
379 1 6.91871 42.4601 -3.1243 5.72182 5 
380 1 4.26754 42.8306 -1.6635 5.93332 5 
381 1 5.46808 40.6486 -0.389904 8.84303 5 
385 1 12.3309 0.0177592 -14.1206 0.000123263 1 
387 1 15.0838 47.5995 -13.8037 0.000132186 1 
388 1 17.4599 47.8849 -12.2407 0.00038193 1 
389 1 14.9009 48.1092 -10.9778 0.000245855 1 
390 1 15.8129 45.5665 -11.9211 0.000105631 1 
391 1 13.2545 45.792 -10.6561 0.00206905 1 
392 1 15.6297 46.0778 -9.09164 0.0012384 1 
393 1 13.0647 46.3085 -7.80843 0.0144448 1 
394 1 13.9845 43.7677 -8.76307 0.00761343 1 
395 1 11.4268 43.9906 -7.52835 0.00624184 1 
396 1 13.7988 44.2997 -5.89841 0.065185 1 
397 1 11.2071 44.5171 -4.70784 0.0475442 1 
398 1 12.1755 41.9528 -5.66686 0.0344816 1 
399 1 9.58593 42.1684 -4.53305 0.23501 1 
400 1 12.0362 42.5089 -2.90727 0.293919 1 
401 1 9.44154 42.726 -1.92701 6.63603 5 
402 1 10.412 40.1264 -2.56725 0.317311 1 
403 1 7.9387 40.4654 -1.40537 5.41905 5 
410 1 22.5948 47.4308 -14.7665 0.000132352 1 
411 1 20.0245 47.6588 -13.5071 0.000259233 1 
412 1 20.9428 45.1127 -14.4479 0.000132418 1 
413 1 18.375 45.3405 -13.1844 0.000371837 1 
414 1 20.7557 45.6215 -11.6364 0.000656264 1 
415 1 18.1879 45.8532 -10.358 0.00319676 1 
416 1 19.1046 43.3059 -11.3136 0.00048969 1 
417 1 16.5399 43.5354 -10.0416 0.0010502 1 
418 1 18.9175 43.8215 -8.49735 0.00860641 1 
419 1 16.3642 44.0502 -7.20258 0.00754701 1 
420 1 17.2651 41.501 -8.17391 0.00756556 1 
421 1 14.7174 41.7373 -6.89559 0.00996948 1 
422 1 17.0763 42.0116 -5.33761 0.133297 1 
423 1 14.5463 42.2686 -4.06396 0.0791912 1 
424 1 15.4725 39.7201 -4.98772 0.123516 1 
425 1 12.9368 39.9054 -3.72323 0.134412 1 
426 1 15.3288 40.2676 -2.12506 5.57348 5 
427 1 13.5317 37.8951 -1.72096 6.09161 5 
428 1 10.86 38.0409 -0.619933 2.99059 5 
439 1 25.9019 45.1653 -14.1455 0.000120565 1 
440 1 23.329 45.3927 -12.8966 0.000283657 1 
441 1 24.2471 42.8485 -13.8322 0.000128127 1 
442 1 21.6748 43.0766 -12.577 0.00017784 1 
443 1 24.0622 43.3568 -11.0233 0.000777365 1 
444 1 21.4901 43.5837 -9.76442 0.00124632 1 
445 1 22.4059 41.0401 -10.7124 0.000352008 1 
446 1 19.8356 41.2653 -9.45285 0.00399731 1 
447 1 22.2226 41.5442 -7.90281 0.00406893 1 
448 1 19.6525 41.7689 -6.67912 0.0814949 1 
449 1 20.5605 39.2257 -7.56547 0.0111215 1 
450 1 17.984 39.4724 -6.27639 0.0863979 1 
451 1 20.3811 39.7315 -4.74251 1.13948 5 
452 1 17.9475 39.9899 -3.28479 6.34117 5 
453 1 18.7139 37.4277 -4.48315 0.449941 1 
454 1 16.0367 37.681 -3.23648 6.21079 5 
455 1 18.3294 37.6288 -1.77854 7.21516 5 
456 1 15.6306 36.4074 -0.773914 6.2767 5 
457 1 18.0888 35.1558 -0.667842 2.27419 5 
474 1 29.2075 42.902 -13.5138 0.000101657 1 
475 1 26.6363 43.1296 -12.2731 0.000272577 1 
476 1 27.554 40.5843 -13.2096 0.000199074 1 
477 1 24.9799 40.8132 -11.9666 0.000444715 1 
478 1 27.3695 41.0974 -10.4046 0.0016328 1 
479 1 24.7925 41.326 -9.16249 0.00306678 1 
480 1 25.7125 38.7761 -10.113 0.00222988 1 
481 1 23.1309 39.0038 -8.85381 0.00267014 1 
482 1 25.5228 39.2875 -7.33935 0.0215166 1 
483 1 22.9411 39.5062 -6.0426 0.0139682 1 
484 1 23.867 36.9707 -7.00087 0.018309 1 
485 1 21.2953 37.184 -5.71392 0.060043 1 
486 1 23.6674 37.477 -4.17033 0.274628 1 
487 1 21.0946 37.7936 -2.86842 3.68669 5 
488 1 22.1549 35.1161 -4.00052 0.537412 1 
489 1 19.7135 35.3919 -2.76868 4.54365 5 
490 1 22.0851 35.7762 -1.3888 11.2041 5 
491 1 20.6042 33.413 -0.763621 13.8509 5 
511 1 31.7741 42.6756 -14.7548 7.98902e-05 1 
513 1 30.1237 40.3561 -14.4492 7.46021e-05 1 
514 1 32.5089 40.6398 -12.8781 0.000119441 1 
515 1 29.9425 40.8671 -11.6397 0.000348281 1 
516 1 30.8613 38.318 -12.5764 0.000289976 1 
517 1 28.2915 38.5462 -11.3466 0.000994477 1 
518 1 30.6843 38.8278 -9.77337 0.00158124 1 
519 1 28.1101 39.0591 -8.56419 0.00814303 1 
520 1 29.0345 36.5022 -9.48131 0.0029056 1 
521 1 26.4533 36.7342 -8.25952 0.0026527 1 
522 1 28.8578 37.0061 -6.71697 0.0294333 1 
523 1 26.2584 37.2518 -5.48913 0.0261579 1 
524 1 27.2142 34.6897 -6.39824 0.0136177 1 
525 1 24.6594 34.9194 -5.21827 0.103819 1 
526 1 27.0524 35.2309 -3.63239 0.140644 1 
527 1 24.5751 35.4538 -2.47771 6.39151 5 
528 1 25.3612 32.88 -3.31699 6.07721 5 
529 1 23.1242 33.0783 -1.77118 7.3016 5 
530 1 23.3163 30.5752 -0.197622 6.61426 5 
550 1 35.0707 40.4145 -14.1216 0.000108219 1 
552 1 33.4246 38.0924 -13.8145 0.000133323 1 
553 1 35.8044 38.3778 -12.2421 0.000258203 1 
554 1 33.2463 38.602 -11.0011 0.000410696 1 
555 1 34.16 36.0539 -11.9332 0.000408623 1 
556 1 31.6011 36.2766 -10.6988 0.00115746 1 
557 1 33.981 36.5619 -9.11707 0.00185569 1 
558 1 31.4261 36.7799 -7.89634 0.00782065 1 
559 1 32.3365 34.2375 -8.79903 0.00298574 1 
560 1 29.7784 34.4583 -7.58622 0.00608724 1 
561 1 32.1451 34.7336 -5.96204 0.0204498 1 
562 1 29.5954 34.9615 -4.76844 0.0580938 1 
563 1 30.4938 32.426 -5.67413 0.019829 1 
564 1 27.9195 32.6401 -4.51762 0.122081 1 
565 1 30.2327 32.9183 -2.85602 0.295769 1 
566 1 27.5866 33.2217 -1.8134 5.99885 5 
567 1 28.5675 30.6624 -2.44951 0.555251 1 
568 1 25.9613 30.966 -1.18835 7.52452 5 
579 1 40.9263 37.9282 -14.7558 0.000111156 1 
580 1 38.3631 38.1536 -13.496 0.00014195 1 
581 1 39.2782 35.6069 -14.4388 0.000129558 1 
582 1 36.7177 35.831 -13.1812 0.000206477 1 
583 1 39.0925 36.1163 -11.619 0.000511423 1 
584 1 36.5356 36.3398 -10.3585 0.000752778 1 
585 1 37.4478 33.7948 -11.2963 0.000282852 1 
586 1 34.8912 34.0179 -10.0408 0.000605964 1 
587 1 37.2652 34.3029 -8.46455 0.00158318 1 
588 1 34.7064 34.5314 -7.209 0.00776364 1 
589 1 35.6148 31.9887 -8.14866 0.00245744 1 
590 1 33.0542 32.2083 -6.88463 0.0114854 1 
591 1 35.4139 32.5249 -5.32607 0.062937 1 
592 1 32.8346 32.6951 -4.00726 0.137932 1 
593 1 33.7562 30.198 -4.93628 0.127823 1 
594 1 31.1849 30.4342 -3.70308 0.185075 1 
595 1 33.5984 30.6806 -1.90081 6.48482 5 
596 1 31.8527 28.4341 -1.92664 5.34691 5 
597 1 29.0715 28.5448 -0.772209 10.0629 5 
602 1 44.2265 35.6638 -14.1454 0.000177926 1 
603 1 41.656 35.8918 -12.8857 0.000321888 1 
604 1 42.575 33.3439 -13.8282 0.000302968 1 
605 1 40.007 33.5713 -12.5613 0.000781723 1 
606 1 42.3861 33.8533 -11.0218 0.00184217 1 
607 1 39.8185 34.082 -9.73148 0.0076605 1 
608 1 40.7372 31.5343 -10.6932 0.00153935 1 
609 1 38.1754 31.7594 -9.41233 0.00223552 1 
610 1 40.5564 32.0383 -7.88174 0.0120586 1 
611 1 37.9988 32.2651 -6.57774 0.0275859 1 
612 1 38.9067 29.7312 -7.509 0.0377826 1 
613 1 36.3434 29.9604 -6.27861 0.0495493 1 
614 1 38.7504 30.2125 -4.61482 0.937246 5 
615 1 36.1166 30.5034 -3.51996 2.36402 5 
616 1 37.1167 27.9409 -4.37645 0.195153 1 
617 1 34.5347 28.2108 -3.00789 1.45883 5 
618 1 37.1799 28.6602 -1.6956 7.63401 5 
619 1 35.2988 26.2576 -1.12986 4.2053 5 
620 1 43.3093 31.3046 -11.9618 0.000620679 1 
621 1 43.1284 31.8085 -9.1667 0.00412796 1 
622 1 44.0471 29.2616 -10.0965 0.00240099 1 
623 1 41.4715 29.4921 -8.82792 0.00499885 1 
624 1 43.874 29.7561 -7.31464 0.0248707 1 
625 1 41.3101 29.9829 -6.02947 0.0556521 1 
626 1 42.2142 27.4467 -6.94531 0.0393223 1 
627 1 39.6783 27.7017 -5.66962 0.0826496 1 
628 1 42.1766 27.9325 -4.06226 0.689175 1 
629 1 39.6471 28.1179 -2.84392 1.55401 5 
630 1 40.3838 25.634 -3.98209 7.01844 5 
631 1 37.7398 25.9531 -2.47167 2.79992 5 
632 1 40.0723 25.4942 -1.3499 12.3487 5 
633 1 38.6576 23.274 -0.404295 5.94048 5 
634 1 42.9558 25.4004 -5.08031 0.0840442 1 
635 1 42.6946 25.8551 -2.26548 7.43167 5 
636 1 43.6732 23.3872 -3.20222 5.66518 5 
637 1 41.6304 23.2202 -1.1416 8.85187 5 
638 1 44.505 21.5237 -1.18051 11.1866 5 
641 1 47.35 47.7106 -13.2135 0.000198057 1 
642 1 44.7759 47.9386 -11.9618 0.000620798 1 
643 1 47.1693 48.2152 -10.4158 0.000478524 1 
644 1 44.5951 48.4426 -9.16665 0.00412829 1 
645 1 45.5138 45.8956 -10.0964 0.00240073 1 
646 1 45.3407 46.3902 -7.3146 0.0248695 1 
650 1 6.84046 49.8022 -14.7681 0.000138817 1 
652 1 5.18854 47.4832 -14.4575 0.000124556 1 
653 1 7.57878 47.7635 -12.8906 0.000320127 1 
654 1 5.00902 47.9891 -11.6557 0.000435475 1 
655 1 5.92562 45.4458 -12.5813 0.0002467 1 
656 1 48.0878 45.6715 -11.3422 0.000507263 1 
657 1 5.74628 45.952 -9.77372 0.00118517 1 
658 1 47.9109 46.1727 -8.54355 0.00301122 1 
659 1 4.08487 43.6375 -9.46563 0.00143401 1 
660 1 46.2456 43.8624 -8.20471 0.00884202 1 
661 1 3.89789 44.1427 -6.65244 0.0103437 1 
662 1 46.078 44.3539 -5.36846 0.461591 1 
663 1 46.9626 41.8417 -6.34871 0.0406228 1 
664 1 46.7373 42.4151 -3.43851 1.22574 5 
665 1 45.1399 40.0213 -3.20222 5.66497 5 
673 1 10.1436 47.5386 -14.1277 0.0002123 1 
675 1 8.49319 45.2201 -13.8196 0.000185595 1 
676 1 10.8775 45.5045 -12.2412 0.000538743 1 
677 1 8.31417 45.7289 -11.0058 0.000811649 1 
678 1 9.22733 43.186 -11.9408 0.000248369 1 
679 1 6.65891 43.4117 -10.7043 0.000282606 1 
680 1 9.04441 43.6992 -9.1277 0.00181254 1 
681 1 6.47028 43.922 -7.89378 0.00243524 1 
682 1 7.38944 41.3813 -8.82772 0.00472283 1 
683 1 4.81009 41.6167 -7.59062 0.0208997 1 
684 1 7.18012 41.903 -6.00099 0.069034 1 
685 1 4.5713 42.1354 -4.74524 0.28225 1 
686 1 5.56521 39.576 -5.81466 0.0692594 1 
687 1 47.7023 39.8038 -4.61315 0.313476 1 
688 1 5.43408 40.1361 -3.09145 0.655537 1 
689 1 47.6722 40.3388 -1.98303 11.8539 5 
690 1 3.68785 37.7798 -2.72485 3.33976 5 
691 1 45.9717 38.1577 -1.18052 11.1861 5 
703 1 15.9974 45.0554 -14.7448 8.00333e-05 1 
704 1 13.4368 45.2802 -13.4877 0.000398838 1 
705 1 14.3501 42.7358 -14.4302 0.00021119 1 
706 1 11.79 42.9607 -13.1807 0.000220219 1 
707 1 14.1668 43.2486 -11.6036 0.00115522 1 
708 1 11.6099 43.474 -10.3572 0.000846088 1 
709 1 12.5232 40.9262 -11.3022 0.000361556 1 
710 1 9.96161 41.1517 -10.0663 0.000637312 1 
711 1 12.3449 41.4419 -8.48245 0.00222171 1 
712 1 9.77782 41.6631 -7.26785 0.0142584 1 
713 1 10.7057 39.1132 -8.18967 0.00264594 1 
714 1 8.14608 39.3386 -6.98103 0.0128893 1 
715 1 10.5483 39.6159 -5.37514 0.0318571 1 
716 1 7.98283 39.864 -4.20802 0.130743 1 
717 1 8.88917 37.2805 -5.10634 0.0641262 1 
718 1 6.30137 37.5281 -4.02438 0.280644 1 
719 1 8.65564 37.8218 -2.38209 0.545947 1 
720 1 6.04807 38.0723 -1.42206 7.37259 5 
721 1 7.03448 35.498 -1.9267 0.762795 1 
722 1 4.51316 35.8211 -0.765322 7.10012 5 
739 1 19.292 42.7946 -14.1298 0.000112537 1 
740 1 16.7268 43.0215 -12.8671 0.000204427 1 
741 1 17.6429 40.4747 -13.8128 0.000125378 1 
742 1 15.0811 40.701 -12.5527 0.000311316 1 
743 1 17.4557 40.986 -10.9935 0.000666673 1 
744 1 14.897 41.2149 -9.72732 0.0017007 1 
745 1 15.8116 38.6649 -10.6727 0.000419128 1 
746 1 13.2572 38.8892 -9.41985 0.00112896 1 
747 1 15.6242 39.1766 -7.84192 0.00546769 1 
748 1 13.087 39.4136 -6.59253 0.017529 1 
749 1 13.9812 36.8481 -7.53361 0.00865055 1 
750 1 11.4226 37.0704 -6.3046 0.0163234 1 
751 1 13.7409 37.3802 -4.73712 0.145785 1 
752 1 11.2433 37.5696 -3.45282 0.136666 1 
753 1 12.0988 35.044 -4.37486 0.0492386 1 
754 1 9.5645 35.2283 -3.09328 0.115471 1 
755 1 11.8725 35.5208 -1.43548 7.0865 5 
756 1 10.0793 33.1298 -1.11506 4.98975 5 
779 1 22.5927 40.5307 -13.5197 0.000138692 1 
780 1 20.022 40.7582 -12.2607 0.000235512 1 
781 1 20.9395 38.2118 -13.2033 0.000235864 1 
782 1 18.3718 38.4392 -11.9376 0.000435367 1 
783 1 20.7493 38.7216 -10.3901 0.00111806 1 
784 1 18.1823 38.9521 -9.11118 0.00356884 1 
785 1 19.0999 36.4021 -10.0722 0.00134301 1 
786 1 16.5383 36.6254 -8.79627 0.00366526 1 
787 1 18.9104 36.9124 -7.26177 0.0113139 1 
788 1 16.3419 37.1257 -5.97497 0.101388 1 
789 1 17.2644 34.595 -6.87852 0.0985527 1 
790 1 14.7291 34.8041 -5.62299 0.0952616 1 
791 1 17.1046 35.0917 -3.88644 6.10964 5 
792 1 14.3952 35.3192 -2.87439 5.89162 5 
793 1 15.4881 32.7076 -3.72914 5.53428 5 
794 1 12.7835 33.0672 -2.48467 4.03566 5 
795 1 15.9358 33.5695 -1.23377 5.06553 5 
819 1 25.1654 40.3023 -14.7708 0.000105791 1 
821 1 23.5118 37.9833 -14.4597 0.000148987 1 
822 1 25.8998 38.2647 -12.9057 0.000367748 1 
823 1 23.3233 38.4938 -11.6563 0.000536926 1 
824 1 24.2466 35.9448 -12.5949 0.000312511 1 
825 1 21.6711 36.1743 -11.3404 0.000659944 1 
826 1 24.0589 36.4555 -9.79885 0.00143989 1 
827 1 21.4821 36.6847 -8.53492 0.00405461 1 
828 1 22.4109 34.1301 -9.49092 0.00341152 1 
829 1 19.8332 34.3572 -8.22265 0.0115207 1 
830 1 22.2373 34.6267 -6.72523 0.0413055 1 
831 1 19.657 34.8528 -5.45127 0.212664 1 
832 1 20.61 32.2887 -6.38825 0.0438305 1 
833 1 18.0515 32.5329 -5.09797 0.259046 1 
834 1 20.6048 32.8138 -3.64473 0.440288 1 
835 1 18.2443 32.9388 -2.38796 6.85886 5 
836 1 18.8445 30.4241 -3.27331 5.37511 5 
837 1 16.8631 30.6503 -1.32332 12.7539 5 
866 1 28.4728 38.0359 -14.1453 0.000174266 1 
868 1 26.8212 35.7156 -13.8381 0.000194228 1 
869 1 29.2122 35.9956 -12.2737 0.000481318 1 
870 1 26.6386 36.2244 -11.0426 0.000640273 1 
871 1 27.562 33.6749 -11.9668 0.000513579 1 
872 1 24.9882 33.9024 -10.734 0.00116388 1 
873 1 27.3861 34.1805 -9.17526 0.00219713 1 
874 1 24.8126 34.407 -7.95836 0.00997692 1 
875 1 25.7324 31.8576 -8.86105 0.00206673 1 
876 1 23.1661 32.0812 -7.62366 0.00433035 1 
877 1 25.5574 32.3542 -6.07408 0.0168105 1 
878 1 23.0365 32.5726 -4.81675 0.17617 1 
879 1 23.907 30.0367 -5.75119 0.0243101 1 
880 1 21.3888 30.215 -4.53923 0.684254 1 
881 1 23.7447 30.5401 -2.9383 6.05134 5 
882 1 21.1743 30.8222 -1.8864 11.8931 5 
883 1 22.4074 28.1875 -2.00129 10.3081 5 
884 1 19.6709 28.4585 -1.16261 8.26286 5 
909 1 34.339 35.5459 -14.7499 0.00011757 1 
910 1 31.7777 35.7699 -13.5073 0.000257079 1 
911 1 32.692 33.2244 -14.438 0.000186249 1 
912 1 30.1296 33.4488 -13.1989 0.000312678 1 
913 1 32.5143 33.7313 -11.6207 0.000660288 1 
914 1 29.954 33.9545 -10.3918 0.00118227 1 
915 1 30.8663 31.4115 -11.3121 0.000759514 1 
916 1 28.3018 31.6349 -10.0861 0.00143313 1 
917 1 30.6868 31.9182 -8.49473 0.0029418 1 
918 1 28.1218 32.1379 -7.28892 0.00995532 1 
919 1 29.0295 29.6059 -8.18675 0.00556156 1 
920 1 26.4635 29.8233 -6.95814 0.00941577 1 
921 1 28.826 30.124 -5.34694 0.0561456 1 
922 1 26.2644 30.3151 -4.11332 0.136765 1 
923 1 27.1497 27.7969 -5.08022 0.0474311 1 
924 1 24.5749 28.018 -3.82947 5.53483 5 
925 1 26.81 28.3452 -2.17731 5.42877 5 
926 1 25.1677 26.1966 -1.66354 5.93341 5 
927 1 22.4593 25.7304 -0.483529 6.58974 5 
946 1 37.6312 33.2858 -14.1206 0.000123237 1 
947 1 35.072 33.5091 -12.8657 0.000222513 1 
948 1 35.984 30.9655 -13.8038 0.000132192 1 
949 1 33.4254 31.1886 -12.5509 0.000478981 1 
950 1 35.8011 31.4751 -10.9779 0.000245907 1 
951 1 33.2446 31.6972 -9.72296 0.00193477 1 
952 1 34.1547 29.158 -10.6561 0.00206913 1 
953 1 31.5962 29.3816 -9.41355 0.00251546 1 
954 1 33.9649 29.6744 -7.80845 0.0144447 1 
955 1 31.4009 29.8996 -6.57361 0.0131903 1 
956 1 32.327 27.3566 -7.52837 0.00624197 1 
957 1 29.7422 27.5869 -6.32283 0.0243807 1 
958 1 32.1073 27.883 -4.70787 0.0475323 1 
959 1 29.4657 28.1298 -3.53123 0.261213 1 
960 1 30.4861 25.5343 -4.53303 0.234921 1 
961 1 27.8189 25.8261 -3.12432 5.72188 5 
962 1 30.3417 26.092 -1.92713 6.63611 5 
963 1 28.8389 23.8313 -1.40536 5.41921 5 
964 1 26.3683 24.0145 -0.389913 8.84301 5 
975 1 40.9247 31.0247 -13.5072 0.0002592 1 
976 1 38.3601 31.2508 -12.2407 0.000381867 1 
977 1 39.2751 28.7065 -13.1844 0.000371566 1 
978 1 36.7131 28.9324 -11.9211 0.000105594 1 
979 1 39.0881 29.2192 -10.358 0.00319579 1 
980 1 36.5299 29.4437 -9.09167 0.00123832 1 
981 1 37.4401 26.9013 -10.0416 0.00104991 1 
982 1 34.8847 27.1336 -8.76309 0.00761311 1 
983 1 37.2643 27.4161 -7.2026 0.00754698 1 
984 1 34.699 27.6657 -5.89843 0.0651789 1 
985 1 35.6176 25.1033 -6.8956 0.00997007 1 