ITEM: TIMESTEP
0
ITEM: NUMBER OF ATOMS
13183
ITEM: BOX BOUNDS xy xz yz pp pp ss
0.0000000000000000e+00 6.4608817431800003e+02 4.6469518933799998e+02
0.0000000000000000e+00 4.0668734991000001e+01 0.0000000000000000e+00
-9.8142091204300570e+01 1.0397408292169085e+02 0.0000000000000000e+00
ITEM: ATOMS id type x y z c_csym c_cna 
1 1 180.794 3.77734 -3.78125 5.02851 5 
2 1 179.968 2.61346 -0.75401 11.4514 5 
4 1 180.5 3.25798 -12.7997 0.000540894 1 
5 1 180.983 4.23622 -10.1403 0.00268163 1 
6 1 179.931 1.79712 -9.08564 0.00512163 1 
7 1 180.392 2.76532 -6.44726 0.0284945 1 
8 1 179.345 0.288637 -5.46028 0.182391 1 
9 1 179.762 1.20303 -2.94681 8.53134 5 
18 1 643.666 40.5129 -14.3772 0.000180075 1 
19 1 179.457 0.820689 -11.7306 0.000865029 1 
144 1 181.447 15.0792 -7.97985 0.00333707 1 
145 1 180.955 13.6302 -4.18835 0.134415 1 
146 1 181.299 14.6636 -1.64034 6.72801 5 
148 1 181.471 15.5776 -14.4036 0.000111838 1 
149 1 180.432 13.1458 -13.3041 0.000219211 1 
150 1 180.937 14.1127 -10.645 0.000862488 1 
151 1 179.897 11.6853 -9.54007 0.000954144 1 
152 1 180.41 12.6589 -6.87062 0.00284187 1 
153 1 181.47 10.1589 -7.69088 0.00502158 1 
154 1 179.366 10.2296 -5.75309 0.0117195 1 
155 1 179.965 11.2351 -3.08354 0.21868 1 
156 1 180.935 8.70586 -3.87571 0.163322 1 
157 1 178.97 8.92957 -1.90525 1.89958 5 
166 1 178.889 9.74597 -14.8657 0.00010697 1 
167 1 179.39 10.7158 -12.2055 0.000333896 1 
168 1 180.465 8.20599 -13.0395 0.000327424 1 
169 1 180.964 9.18036 -10.3716 0.00126457 1 
170 1 178.345 8.28689 -11.1092 0.000658359 1 
171 1 178.852 9.25715 -8.43472 0.00194836 1 
172 1 179.91 6.75316 -9.27781 0.00284886 1 
173 1 180.406 7.73345 -6.58179 0.0111599 1 
174 1 177.797 6.83152 -7.32777 0.0080127 1 
175 1 178.298 7.80811 -4.61447 0.126361 1 
176 1 179.337 5.30567 -5.50561 0.0724198 1 
177 1 179.727 6.34492 -2.66106 3.10038 5 
178 1 177.265 5.32967 -3.59476 5.25454 5 
179 1 178.072 4.49222 -1.02145 10.9165 5 
201 1 177.846 7.31528 -13.7747 0.000215815 1 
202 1 178.926 4.80068 -14.6138 0.000206781 1 
203 1 179.418 5.77625 -11.9516 0.000749962 1 
204 1 176.802 4.88457 -12.6897 0.000562494 1 
205 1 177.297 5.85914 -10.0179 0.00208231 1 
206 1 178.369 3.34492 -10.8754 0.00168204 1 
207 1 178.85 4.32449 -8.19966 0.00862948 1 
208 1 176.24 3.4253 -8.94736 0.00226031 1 
209 1 176.718 4.39278 -6.26619 0.0191201 1 
210 1 177.779 1.8839 -7.14801 0.0235832 1 
211 1 178.222 2.83519 -4.47543 1.60169 5 
212 1 175.626 1.94063 -5.19909 0.0410789 1 
213 1 176.145 2.88475 -2.45553 4.67895 5 
214 1 177.153 0.430045 -3.38873 1.743 5 
215 1 175.317 0.360146 -1.10614 9.56525 5 
251 1 177.883 2.36638 -13.5356 0.000355925 1 
252 1 175.266 1.47242 -14.2734 0.000198966 1 
253 1 175.756 2.44956 -11.6164 0.000718288 1 
254 1 641.536 40.5957 -12.4649 0.000447627 1 
255 1 177.319 0.906256 -9.81288 0.00271632 1 
256 1 174.712 0.00785454 -10.5496 0.00100851 1 
257 1 175.186 0.982641 -7.88264 0.00363037 1 
545 1 362.713 24.9739 -8.55936 0.00765732 1 
546 1 362.149 23.4941 -4.90357 0.2269 1 
547 1 362.822 24.5465 -2.51461 6.68178 5 
548 1 361.651 22.0726 -1.34068 2.74874 5 
551 1 362.77 25.4694 -14.9525 8.63272e-05 1 
552 1 361.73 23.0368 -13.8532 0.000127694 1 
553 1 362.223 24.0042 -11.2065 0.000860892 1 
554 1 361.182 21.5713 -10.1191 0.00151356 1 
555 1 361.663 22.5404 -7.49061 0.0122638 1 
556 1 362.779 20.0136 -8.31432 0.0064383 1 
557 1 360.642 20.1018 -6.42571 0.0335625 1 
558 1 361.179 21.0676 -3.84472 0.229729 1 
559 1 362.217 18.5546 -4.58281 0.0364753 1 
560 1 362.725 19.5456 -1.93092 6.39399 5 
561 1 360.123 18.6602 -2.62339 0.273119 1 
562 1 361.888 17.2546 -0.526205 6.79754 5 
573 1 362.818 20.5234 -14.6775 5.92346e-05 1 
575 1 360.69 20.6032 -12.7598 0.000213763 1 
576 1 361.78 18.0887 -13.5827 0.000163933 1 
577 1 362.28 19.053 -10.9412 0.0010012 1 
578 1 359.653 18.1671 -11.6677 0.000569779 1 
579 1 360.15 19.1316 -9.03468 0.00440817 1 
580 1 361.246 16.6181 -9.83814 0.00144575 1 
581 1 361.751 17.5749 -7.19732 0.0119014 1 
582 1 359.123 16.6954 -7.93196 0.00421663 1 
583 1 359.615 17.6767 -5.30799 0.0130553 1 
584 1 179.34 15.1612 -6.06064 0.0174761 1 
585 1 361.189 16.1851 -3.4162 0.188306 1 
586 1 177.223 15.2706 -4.18902 0.0288749 1 
587 1 359.153 16.3427 -1.4735 0.558894 1 
588 1 178.793 13.7597 -2.30772 0.135941 1 
610 1 359.155 17.2011 -14.3115 8.38444e-05 1 
612 1 179.349 15.6545 -12.4842 0.000310725 1 
613 1 176.724 14.7668 -13.2152 0.000146798 1 
614 1 358.618 15.7317 -10.5695 0.000688145 1 
615 1 178.312 13.2231 -11.3824 0.000450041 1 
616 1 178.822 14.1904 -8.72641 0.00159 1 
617 1 176.193 13.2991 -9.46862 0.00132533 1 
618 1 176.71 14.2682 -6.82488 0.00728122 1 
619 1 177.787 11.7601 -7.6191 0.00214269 1 
620 1 178.317 12.7367 -4.95271 0.0193176 1 
621 1 175.679 11.8334 -5.71952 0.0170205 1 
622 1 176.203 12.856 -3.10139 0.0407577 1 
623 1 177.285 10.3106 -3.8261 0.120328 1 
624 1 177.749 11.3528 -1.24059 4.05977 5 
625 1 175.103 10.48 -2.0426 4.80453 5 
661 1 177.808 12.2564 -14.0375 0.000117886 1 
662 1 175.184 11.3678 -14.7707 6.255e-05 1 
663 1 175.686 12.334 -12.1177 0.000270201 1 
664 1 176.767 9.82547 -12.9419 0.000207789 1 
665 1 177.273 10.7924 -10.2812 0.000700613 1 
666 1 174.646 9.90253 -11.0202 0.000464061 1 
667 1 175.156 10.8656 -8.36559 0.00193815 1 
668 1 176.231 8.36332 -9.17957 0.00145083 1 
669 1 176.747 9.32873 -6.50487 0.00650657 1 
670 1 174.117 8.43621 -7.25827 0.00427901 1 
671 1 174.663 9.3892 -4.59298 0.140842 1 
672 1 175.698 6.89997 -5.37913 0.0512295 1 
673 1 176.3 7.9271 -2.56419 1.63759 5 
674 1 173.663 6.97628 -3.44739 0.480663 1 
675 1 173.867 8.28941 -0.80655 10.3328 5 
676 1 175.416 5.56003 -1.51149 9.40546 5 
726 1 174.144 8.93648 -13.6779 0.000126699 1 
727 1 175.226 6.42484 -14.5116 0.000159257 1 
728 1 175.725 7.39585 -11.8492 0.000452744 1 
729 1 173.104 6.50597 -12.59 0.000320091 1 
730 1 173.606 7.47385 -9.92514 0.00098573 1 
731 1 174.682 4.9662 -10.7642 0.00139123 1 
732 1 175.184 5.93804 -8.08144 0.00702833 1 
733 1 172.57 5.04309 -8.84457 0.00427262 1 
734 1 173.091 6.00172 -6.15807 0.0215877 1 
735 1 174.123 3.5 -6.99898 0.0166031 1 
736 1 174.642 4.44905 -4.26455 0.152541 1 
737 1 172.041 3.55169 -5.06131 0.0932882 1 
738 1 172.652 4.50858 -2.31627 2.33384 5 
739 1 173.537 1.95093 -3.22349 1.02653 5 
740 1 173.502 2.40892 -0.537568 7.8319 5 
741 1 170.991 2.12997 -1.37803 7.60381 5 
805 1 174.184 3.99188 -13.4305 0.00035644 1 
806 1 171.565 3.09849 -14.1717 0.000218832 1 
807 1 172.065 4.07232 -11.5137 0.000840043 1 
808 1 173.143 1.55341 -12.3582 0.000567948 1 
809 1 173.635 2.52916 -9.69169 0.0025324 1 
810 1 171.025 1.62978 -10.4494 0.00165009 1 
811 1 171.526 2.60154 -7.77818 0.0105141 1 
812 1 172.591 0.0804674 -8.63461 0.00293556 1 
813 1 173.057 1.04352 -5.95088 0.01652 1 
814 1 170.478 0.14061 -6.74029 0.0161349 1 
815 1 170.964 1.07789 -4.02343 0.485421 1 
891 1 170.525 0.656317 -13.1022 0.00034091 1 
1207 1 544.014 34.8656 -9.15165 0.00407824 1 
1208 1 543.438 33.3839 -5.37879 0.0865806 1 
1209 1 543.893 34.4387 -2.7237 0.861623 1 
1210 1 543.031 31.9897 -1.65526 6.96422 5 
1214 1 543.033 32.9373 -14.4178 0.000293419 1 
1215 1 543.527 33.9009 -11.7837 0.00103205 1 
1216 1 361.091 31.4542 -10.6737 0.00200474 1 
1217 1 542.967 32.4151 -8.03114 0.0121645 1 
1218 1 362.664 29.9021 -8.85812 0.00681175 1 
1219 1 360.539 29.9745 -6.87699 0.0202407 1 
1220 1 361.065 30.9164 -4.21034 0.142081 1 
1221 1 362.135 28.4522 -5.08693 0.111799 1 
1222 1 362.819 29.4809 -2.47367 5.91846 5 
1223 1 360.073 28.4487 -2.95768 2.37452 5 
1224 1 361.992 27.0955 -1.31386 6.42235 5 
1238 1 360.599 30.4945 -13.3156 0.000441639 1 
1239 1 361.683 27.9819 -14.1331 0.000207403 1 
1240 1 362.175 28.9437 -11.4916 0.00118746 1 
1241 1 359.558 28.0596 -12.2038 0.000639033 1 
1242 1 360.051 29.0186 -9.54396 0.00270314 1 
1243 1 361.133 26.5149 -10.3749 0.00185922 1 
1244 1 361.626 27.4728 -7.71567 0.00917844 1 
1245 1 359.007 26.598 -8.41634 0.00711981 1 
1246 1 359.497 27.5507 -5.71015 0.0561725 1 
1247 1 360.563 25.0595 -6.61708 0.0302473 1 
1248 1 361.059 26.0514 -3.95955 0.862542 1 
1249 1 358.437 25.1316 -4.56896 0.369743 1 
1250 1 359.196 25.9942 -1.44251 9.27432 5 
1251 1 360.039 23.6602 -2.834 6.71094 5 
1276 1 359.063 27.0965 -14.8549 0.000125054 1 
1278 1 360.642 25.5496 -13.0278 0.000316396 1 
1279 1 358.022 24.6646 -13.7531 0.000221151 1 
1280 1 358.517 25.632 -11.0938 0.00135746 1 
1281 1 359.599 23.1194 -11.9296 0.00064521 1 
1282 1 360.085 24.0906 -9.2759 0.00431386 1 
1283 1 357.472 23.2053 -9.99464 0.00350672 1 
1284 1 357.959 24.1776 -7.30505 0.0199907 1 
1285 1 359.044 21.6622 -8.19194 0.00889459 1 
1286 1 359.513 22.6315 -5.5156 0.0864699 1 
1287 1 356.909 21.7437 -6.2656 0.0248357 1 
1288 1 357.325 22.7354 -3.55483 9.59388 5 
1289 1 358.503 20.163 -4.56088 0.211763 1 
1290 1 359.025 21.1586 -2.09343 6.48223 5 
1291 1 356.275 20.2228 -2.72767 7.87692 5 
1292 1 356.702 21.7815 -0.692263 14.8508 5 
1293 1 357.871 18.9248 -0.841943 2.80892 5 
1329 1 359.107 22.1506 -14.5801 7.8357e-05 1 
1331 1 356.981 22.2329 -12.6569 0.000434687 1 
1332 1 358.067 19.7163 -13.4869 0.000111859 1 
1333 1 358.559 20.6862 -10.84 0.00102783 1 
1334 1 355.938 19.7976 -11.5695 0.000384224 1 
1335 1 356.424 20.7711 -8.92182 0.00336734 1 
1336 1 357.521 18.246 -9.75797 0.00232053 1 
1337 1 358.011 19.213 -7.14398 0.018614 1 
1338 1 355.376 18.3267 -7.85168 0.0109932 1 
1339 1 355.855 19.2842 -5.26626 0.114076 1 
1340 1 356.988 16.7837 -6.03592 0.00746797 1 
1341 1 357.49 17.7787 -3.41065 0.102615 1 
1342 1 354.831 16.903 -4.13121 0.0577712 1 
1343 1 355.294 17.8985 -1.53571 9.06547 5 
1344 1 356.522 15.3815 -2.38408 0.15965 1 
1345 1 354.34 15.4845 -0.650988 6.45453 5 
1395 1 355.444 18.8284 -14.2166 3.70333e-05 1 
1397 1 357.027 17.2799 -12.3951 0.000269695 1 
1398 1 354.403 16.3927 -13.1228 0.000106384 1 
1399 1 354.895 17.3595 -10.48 0.000958184 1 
1400 1 174.597 14.8448 -11.2986 0.000298692 1 
1401 1 356.488 15.8108 -8.6597 0.00173177 1 
1402 1 172.465 14.9256 -9.38297 0.00101256 1 
1403 1 354.344 15.9018 -6.74699 0.0100571 1 
1404 1 174.068 13.3751 -7.57097 0.00753402 1 
1405 1 174.586 14.3616 -4.96603 0.0301728 1 
1406 1 171.922 13.4572 -5.70438 0.0420559 1 
1407 1 172.449 14.4624 -3.17337 0.258841 1 
1408 1 173.528 11.9421 -3.88575 0.0500621 1 
1409 1 174.068 13.0393 -1.34307 5.15333 5 
1410 1 171.435 12.0337 -1.93358 2.51814 5 
1474 1 174.099 13.8793 -13.9456 6.33491e-05 1 
1475 1 171.475 12.9926 -14.676 2.83826e-05 1 
1476 1 171.971 13.9586 -12.0266 0.000134141 1 
1477 1 173.06 11.4465 -12.8506 0.000137185 1 
1478 1 173.561 12.4103 -10.2031 0.000924885 1 
1479 1 170.931 11.5246 -10.9314 0.000506993 1 
1480 1 171.426 12.485 -8.29529 0.00530511 1 
1481 1 172.522 9.97784 -9.10219 0.00124664 1 
1482 1 173.032 10.9324 -6.4619 0.0176827 1 
1483 1 170.385 10.0532 -7.18322 0.00699789 1 
1484 1 170.862 11.0377 -4.57413 0.0537771 1 
1485 1 172.006 8.51071 -5.34051 0.055021 1 
1486 1 172.476 9.58087 -2.79234 6.00538 5 
1487 1 169.852 8.6495 -3.42903 0.401863 1 
1488 1 170.815 9.65135 -0.548308 10.7383 5 
1489 1 171.464 7.11459 -1.80898 6.05018 5 
1567 1 170.435 10.5602 -13.5825 7.29384e-05 1 
1568 1 171.521 8.0482 -14.4135 9.80538e-05 1 
1569 1 172.02 9.01563 -11.7563 0.000279634 1 
1570 1 169.396 8.12963 -12.492 0.000265882 1 
1571 1 169.891 9.09478 -9.83294 0.0010633 1 
1572 1 170.982 6.58675 -10.6694 0.00110242 1 
1573 1 171.486 7.55209 -8.00183 0.00559408 1 
1574 1 168.856 6.66926 -8.75045 0.00632319 1 
1575 1 169.349 7.65036 -6.07826 0.0469025 1 
1576 1 170.465 5.11268 -6.95557 0.0251204 1 
1577 1 170.991 6.0797 -4.3208 0.13194 1 
1578 1 168.348 5.20604 -5.13339 0.0998561 1 
1579 1 168.86 6.17354 -2.50085 0.342519 1 
1580 1 169.893 3.69084 -3.29325 0.500926 1 
1581 1 170.618 4.78765 -0.504832 7.49843 5 
1582 1 167.89 3.74415 -1.3183 2.73646 5 
1670 1 170.481 5.61613 -13.3304 0.000314373 1 
1671 1 167.858 4.7262 -14.0697 0.000272927 1 
1672 1 168.356 5.6988 -11.4137 0.00109686 1 
1673 1 169.442 3.17856 -12.2616 0.000472855 1 
1674 1 169.947 4.14958 -9.60983 0.00286119 1 
1675 1 167.315 3.25817 -10.3601 0.00143298 1 
1676 1 167.822 4.22137 -7.72685 0.010747 1 
1677 1 168.91 1.69951 -8.56319 0.00524515 1 
1678 1 169.423 2.64981 -5.90663 0.048062 1 
1679 1 166.783 1.76688 -6.7111 0.0189916 1 
1680 1 167.277 2.76806 -4.12951 0.173449 1 
1681 1 168.353 0.166968 -4.91209 0.137189 1 
1682 1 168.681 1.18467 -2.41781 6.76654 5 
1683 1 166.213 0.246331 -3.07711 0.14811 1 
1772 1 168.942 2.20543 -14.9109 0.000138608 1 
1774 1 166.816 2.28643 -13.0022 0.000339081 1 
1775 1 632.598 40.4297 -13.8411 0.000244269 1 
1776 1 168.404 0.731569 -11.2027 0.000994588 1 
1777 1 630.472 40.5071 -11.9397 0.000829437 1 
1778 1 166.277 0.806413 -9.31735 0.00357644 1 
2140 1 543.991 39.842 -9.4035 0.00290291 1 
2141 1 541.872 39.9041 -7.53761 0.0115929 1 
2142 1 543.417 38.3467 -5.6942 0.0364228 1 
2143 1 543.941 39.3086 -2.96427 4.86473 5 
2144 1 541.341 38.3691 -3.80415 0.142229 1 
2145 1 541.734 39.2139 -1.23818 7.1965 5 
2146 1 542.987 36.8516 -1.80609 4.94935 5 
2150 1 542.991 37.9062 -14.6818 0.000228893 1 
2151 1 543.491 38.8752 -12.0448 0.000717672 1 
2152 1 540.869 37.9805 -12.7813 0.000800303 1 
2153 1 541.372 38.9444 -10.156 0.00287676 1 
2154 1 542.449 36.42 -10.9678 0.00150648 1 
2155 1 542.943 37.3812 -8.33442 0.00557963 1 
2156 1 540.335 36.4821 -9.06611 0.00478709 1 
2157 1 540.831 37.4338 -6.43916 0.014773 1 
2158 1 541.895 34.92 -7.21636 0.0108028 1 
2159 1 542.351 35.8756 -4.55952 0.10506 1 
2160 1 539.801 34.9774 -5.26193 0.0315761 1 
2161 1 540.3 35.9741 -2.55006 0.80214 1 
2162 1 541.339 33.4494 -3.3143 0.272406 1 
2163 1 539.251 33.6453 -1.35399 6.8138 5 
2178 1 541.951 35.4568 -13.6001 0.000472365 1 
2179 1 539.33 34.5667 -14.3243 0.000412002 1 
2180 1 539.832 35.5267 -11.6936 0.00141778 1 
2181 1 540.911 33.0084 -12.5019 0.000784433 1 
2182 1 541.407 33.9652 -9.86219 0.00288904 1 
2183 1 538.8 33.0767 -10.5823 0.00245547 1 
2184 1 539.309 34.0254 -7.93248 0.00865429 1 
2185 1 540.373 31.5209 -8.72213 0.0054581 1 
2186 1 540.87 32.4746 -6.03118 0.0264193 1 
2187 1 538.292 31.5788 -6.77377 0.0194799 1 
2188 1 538.814 32.5266 -4.06023 0.186861 1 
2189 1 358.467 30.0236 -4.85698 0.0421475 1 
2190 1 359.079 30.9278 -2.16863 4.99141 5 
2191 1 356.385 30.0862 -2.93237 2.05251 5 
2192 1 357.357 28.1377 -1.04252 7.00821 5 
2218 1 538.294 32.1222 -13.2236 0.000638781 1 
2219 1 357.981 29.6089 -14.0362 0.00029708 1 
2220 1 358.481 30.5673 -11.3856 0.00124256 1 
2221 1 355.865 29.6847 -12.1142 0.00105523 1 
2222 1 356.377 30.6372 -9.45554 0.00459378 1 
2223 1 357.442 28.1362 -10.2648 0.0022601 1 
2224 1 357.943 29.0869 -7.57609 0.00964271 1 
2225 1 355.336 28.2097 -8.33229 0.00826716 1 
2226 1 355.857 29.1418 -5.61723 0.0752983 1 
2227 1 356.889 26.6597 -6.46062 0.00835481 1 
2228 1 357.416 27.5717 -3.7264 1.02782 5 
2229 1 354.778 26.7189 -4.51739 0.424426 1 
2230 1 354.841 27.7369 -1.86873 7.32325 5 
2231 1 356.421 25.2887 -2.40569 7.66867 5 
2232 1 352.969 25.9339 -0.366126 9.10601 5 
2267 1 355.36 28.7251 -14.7627 0.000221103 1 
2269 1 356.942 27.1757 -12.9293 0.000504771 1 
2270 1 354.321 26.2919 -13.6624 0.00030831 1 
2271 1 354.826 27.2542 -11.0061 0.00157775 1 
2272 1 355.901 24.7457 -11.8282 0.000620678 1 
2273 1 356.4 25.71 -9.15723 0.00230088 1 
2274 1 353.782 24.8252 -9.91056 0.00176813 1 
2275 1 354.282 25.7857 -7.2389 0.0100703 1 
2276 1 355.351 23.2892 -8.05816 0.0119047 1 
2277 1 355.827 24.2499 -5.34799 0.117864 1 
2278 1 353.222 23.3612 -6.15758 0.0304122 1 
2279 1 353.773 24.338 -3.39032 4.50524 5 
2280 1 354.743 21.818 -4.35099 7.13471 5 
2281 1 354.628 23.7044 -0.786161 6.90563 5 
2282 1 352.788 21.8785 -2.29191 7.81504 5 
2329 1 355.402 23.7783 -14.4842 0.00011746 1 
2331 1 353.28 23.8597 -12.5674 0.000321126 1 
2332 1 354.36 21.3449 -13.3905 0.000146223 1 
2333 1 354.856 22.3159 -10.7348 0.00151132 1 
2334 1 352.235 21.4258 -11.476 0.000309056 1 
2335 1 352.732 22.3943 -8.82311 0.00243519 1 
2336 1 353.806 19.8793 -9.65248 0.00131537 1 
2337 1 354.285 20.8535 -7.00044 0.0139421 1 
2338 1 351.677 19.9564 -7.72777 0.00301672 1 
2339 1 352.146 20.9126 -5.06611 0.081857 1 
2340 1 353.23 18.4209 -5.89755 0.0193451 1 
2341 1 353.678 19.4261 -3.23004 2.21257 5 
2342 1 351.09 18.5026 -3.90508 0.584284 1 
2343 1 352.02 19.5 -0.800484 8.52945 5 
2344 1 352.656 17.0262 -2.16063 11.2586 5 
2402 1 351.738 20.4573 -14.1236 4.24384e-05 1 
2403 1 352.822 17.941 -14.9465 1.85395e-05 1 
2404 1 353.317 18.9089 -12.2994 0.000131361 1 
2405 1 350.696 18.0221 -13.0283 6.3078e-05 1 
2406 1 351.189 18.9898 -10.3802 0.000398878 1 
2407 1 352.273 16.4737 -11.2025 0.000289241 1 
2408 1 352.758 17.4442 -8.55431 0.00244268 1 
2409 1 350.144 16.5583 -9.27419 0.00189654 1 
2410 1 350.63 17.5322 -6.60396 0.0132148 1 
2411 1 351.717 15.0123 -7.46648 0.0056695 1 
2412 1 352.186 15.9928 -4.81614 0.0501468 1 
2413 1 349.583 15.0852 -5.53491 0.0169927 1 
2414 1 350.018 16.0682 -2.87174 7.66663 5 
2415 1 169.778 13.5117 -3.81858 0.214836 1 
2416 1 170.35 14.512 -1.37185 6.13669 5 
2417 1 167.511 13.5283 -1.85618 6.97113 5 
2418 1 169.182 12.2893 -0.122697 4.49213 5 
2487 1 351.781 15.5065 -13.851 3.81616e-05 1 
2488 1 167.767 14.6207 -14.5802 2.81221e-05 1 
2489 1 349.654 15.5885 -11.929 0.000170704 1 
2490 1 169.348 13.0731 -12.7552 6.21894e-05 1 
2491 1 169.839 14.0394 -10.1067 0.000602771 1 
2492 1 167.22 13.1546 -10.8315 0.000335612 1 
2493 1 167.704 14.1212 -8.18006 0.00341785 1 
2494 1 168.796 11.6031 -9.00889 0.00215569 1 
2495 1 169.273 12.5634 -6.3857 0.0195998 1 
2496 1 166.656 11.6797 -7.06592 0.00842985 1 
2497 1 167.142 12.6178 -4.42164 0.104739 1 
2498 1 168.226 10.1422 -5.24056 0.0330561 1 
2499 1 168.777 11.1021 -2.55858 0.910575 1 
2500 1 166.043 10.2654 -3.19203 1.56228 5 
2581 1 166.728 12.1881 -13.4853 5.58074e-05 1 
2582 1 167.813 9.67422 -14.3151 7.06452e-05 1 
2583 1 168.308 10.6409 -11.6596 0.000230446 1 
2584 1 165.688 9.75738 -12.3915 0.000224504 1 
2585 1 166.179 10.7232 -9.72983 0.00119578 1 
2586 1 167.268 8.21267 -10.5674 0.00123281 1 
2587 1 167.752 9.17861 -7.90052 0.00735472 1 
2588 1 165.138 8.3015 -8.63125 0.00672076 1 
2589 1 165.609 9.25707 -5.92132 0.0507926 1 
2590 1 166.711 6.75381 -6.84759 0.0315618 1 
2591 1 167.171 7.71378 -4.16794 6.36934 5 
2592 1 164.557 6.83225 -4.85206 6.13727 5 
2593 1 164.76 8.34634 -1.29078 9.601 5 
2594 1 166.242 5.22528 -3.32313 7.08182 5 
2595 1 166.699 6.32658 -0.902371 7.98807 5 
2596 1 164.162 5.47033 -1.5316 7.49104 5 
2686 1 166.773 7.24342 -13.2284 0.000323345 1 
2687 1 164.15 6.35626 -13.9646 0.000269145 1 
2688 1 164.646 7.32967 -11.3044 0.00112692 1 
2689 1 165.73 4.81034 -12.1552 0.000713628 1 
2690 1 166.223 5.78279 -9.50055 0.00397348 1 
2691 1 163.599 4.89845 -10.2346 0.00266204 1 
2692 1 164.084 5.87924 -7.56328 0.023866 1 
2693 1 165.172 3.34145 -8.46306 0.00908978 1 
2694 1 165.659 4.30528 -5.86586 0.0680478 1 
2695 1 163.018 3.42967 -6.53362 0.0446561 1 
2696 1 163.482 4.39302 -3.90648 0.380288 1 
2697 1 164.657 1.85279 -4.86461 0.0682633 1 
2698 1 165.228 2.83177 -2.30473 0.521463 1 
2699 1 162.539 1.90145 -3.03932 6.6747 5 
2700 1 162.994 2.93107 -0.662383 9.93025 5 
2701 1 164.195 0.435246 -1.24687 5.60043 5 
2790 1 165.234 3.83617 -14.8062 0.000182977 1 
2792 1 163.106 3.92117 -12.8899 0.000475159 1 
2793 1 164.191 1.39554 -13.7348 0.000324237 1 
2794 1 164.685 2.36955 -11.0955 0.00147501 1 
2795 1 162.061 1.48009 -11.8211 0.00116217 1 
2796 1 162.548 2.45598 -9.17892 0.00717124 1 
2797 1 628.343 40.5868 -10.0406 0.00251116 1 
2798 1 164.144 0.882854 -7.43415 0.0118732 1 
2799 1 161.512 0.00658773 -8.1352 0.0149748 1 
2800 1 161.991 0.9811 -5.55043 0.161754 1 
2887 1 161.568 0.505923 -14.4619 0.000234192 1 
3196 1 539.765 39.9655 -5.68288 0.0306799 1 
3197 1 537.668 40.0949 -3.87115 0.103603 1 
3198 1 539.167 38.5233 -2.00396 3.51385 5 
3199 1 539.282 39.5396 -14.5845 0.000292715 1 
3200 1 537.155 39.6208 -12.6801 0.000796031 1 
3201 1 538.749 38.0539 -10.8866 0.00264557 1 
3202 1 539.257 39.0146 -8.27974 0.0095893 1 
3203 1 536.633 38.1326 -9.0007 0.00848417 1 
3204 1 537.155 39.0967 -6.41967 0.0402066 1 
3205 1 538.238 36.5498 -7.17553 0.0155264 1 
3206 1 538.745 37.5012 -4.55746 0.108861 1 
3207 1 536.14 36.6458 -5.32789 0.0703255 1 
3208 1 536.585 37.7375 -2.80213 1.8895 5 
3209 1 537.699 35.1112 -3.3827 0.372901 1 
3210 1 537.733 36.2978 -0.795227 9.06462 5 
3211 1 535.395 35.3404 -1.75401 8.85216 5 
3221 1 538.245 37.0906 -13.507 0.000665407 1 
3222 1 535.619 36.2047 -14.227 0.000439962 1 
3223 1 536.123 37.169 -11.6048 0.00186157 1 
3224 1 537.211 34.641 -12.4157 0.00108213 1 
3225 1 537.723 35.596 -9.7923 0.00432214 1 
3226 1 535.095 34.7184 -10.5138 0.00293653 1 
3227 1 535.619 35.674 -7.90961 0.0131142 1 
3228 1 536.703 33.1449 -8.6752 0.00940007 1 
3229 1 537.235 34.0955 -6.03243 0.0491416 1 
3230 1 534.597 33.2303 -6.81582 0.0200622 1 
3231 1 535.113 34.1962 -4.25308 0.172413 1 
3232 1 536.196 31.6612 -4.91587 0.0401908 1 
3233 1 536.689 32.7227 -2.32086 5.02836 5 
3234 1 534.091 31.7626 -3.06784 0.247137 1 
3235 1 534.532 32.7423 -0.532475 8.00826 5 
3236 1 354.515 30.3778 -0.978203 7.82512 5 
3258 1 534.585 33.7605 -13.1356 0.000661209 1 
3259 1 535.67 31.2403 -13.9483 0.000433273 1 
3260 1 536.18 32.1966 -11.3115 0.00199578 1 
3261 1 533.549 31.3216 -12.0383 0.00101758 1 
3262 1 534.066 32.2755 -9.41426 0.00559562 1 
3263 1 353.753 29.7613 -10.2031 0.00315475 1 
3264 1 354.279 30.7041 -7.55322 0.0180771 1 
3265 1 351.632 29.8449 -8.3112 0.00750453 1 
3266 1 352.15 30.8144 -5.70635 0.0232369 1 
3267 1 353.222 28.2805 -6.43409 0.0376851 1 
3268 1 353.684 29.2858 -3.81565 0.492269 1 
3269 1 351.049 28.419 -4.605 0.15032 1 
3270 1 351.708 29.4427 -1.7982 2.12617 5 
3271 1 352.469 26.8574 -2.84856 4.34559 5 
3272 1 350.557 27.1641 -0.729771 9.71616 5 
3302 1 351.651 30.3602 -14.6728 0.00021704 1 
3304 1 353.24 28.805 -12.8474 0.000610632 1 
3305 1 350.611 27.9262 -13.5774 0.000227119 1 
3306 1 351.116 28.8894 -10.94 0.00119213 1 
3307 1 352.2 26.3738 -11.7498 0.000679129 1 
3308 1 352.709 27.3346 -9.09974 0.0036168 1 
3309 1 350.073 26.4605 -9.84845 0.00100391 1 
3310 1 350.578 27.4225 -7.21754 0.00841709 1 
3311 1 351.654 24.9044 -8.01638 0.0032695 1 
3312 1 352.145 25.8455 -5.37789 0.105739 1 
3313 1 349.523 24.9847 -6.1243 0.00891037 1 
3314 1 349.978 25.9659 -3.50698 0.209575 1 
3315 1 351.13 23.4016 -4.29416 0.175213 1 
3316 1 351.484 24.2686 -1.74792 7.69178 5 
3317 1 348.949 23.52 -2.48862 4.92501 5 
3318 1 350.288 21.8295 -0.434115 6.57354 5 
3360 1 351.696 25.4086 -14.3958 0.0001253 1 
3362 1 349.571 25.4934 -12.485 0.000222391 1 
3363 1 350.655 22.9745 -13.3032 0.000112838 1 
3364 1 351.155 23.9412 -10.6593 0.000600619 1 
3365 1 348.529 23.0586 -11.3932 0.000287297 1 
3366 1 349.028 24.0265 -8.75765 0.000845457 1 
3367 1 350.109 21.5055 -9.56506 0.000890312 1 
3368 1 350.604 22.4662 -6.92501 0.00763351 1 
3369 1 347.986 21.5907 -7.65437 0.00296837 1 
3370 1 348.495 22.5343 -5.02184 0.0742396 1 
3371 1 349.555 20.0329 -5.79328 0.0214499 1 
3372 1 350.125 20.9857 -3.06966 0.736532 1 
3373 1 347.502 20.1352 -3.84299 0.403463 1 
3374 1 347.714 21.2568 -1.24336 9.87301 5 
3375 1 349.228 18.6845 -1.71703 8.72705 5 
3429 1 348.03 22.0894 -14.0332 6.67273e-05 1 
3430 1 349.115 19.571 -14.8536 3.40757e-05 1 
3431 1 349.613 20.5391 -12.2089 0.000148643 1 
3432 1 346.99 19.6537 -12.9375 9.59591e-05 1 
3433 1 347.489 20.6226 -10.2947 0.000474421 1 
3434 1 348.572 18.1044 -11.1084 0.000266891 1 
3435 1 349.067 19.0716 -8.45555 0.00160841 1 
3436 1 346.454 18.1884 -9.1898 0.00144789 1 
3437 1 346.958 19.1639 -6.5366 0.00949785 1 
3438 1 348.028 16.6442 -7.33374 0.00931774 1 
3439 1 348.515 17.6138 -4.64439 0.181971 1 
3440 1 345.926 16.7361 -5.42629 0.032001 1 
3441 1 346.524 17.792 -2.69297 4.55156 5 
3442 1 347.457 15.1665 -3.58649 6.74848 5 
3443 1 345.563 15.3997 -1.57027 4.89569 5 
3507 1 348.075 17.1363 -13.757 5.13481e-05 1 
3508 1 345.454 16.2504 -14.4861 3.92588e-05 1 
3509 1 345.952 17.2189 -11.8384 0.000203853 1 
3510 1 347.036 14.7031 -12.6586 0.000114875 1 
3511 1 347.532 15.6719 -10.0031 0.0010612 1 
3512 1 344.916 14.7849 -10.7378 0.000463328 1 
3513 1 345.421 15.7528 -8.08307 0.00340438 1 
3514 1 165.098 13.2352 -8.89922 0.00172895 1 
3515 1 165.587 14.1962 -6.22871 0.0119803 1 
3516 1 162.993 13.3147 -6.96887 0.00914629 1 
3517 1 163.484 14.2963 -4.2987 0.109188 1 
3518 1 164.545 11.7597 -5.07401 0.0812925 1 
3519 1 164.939 12.75 -2.31879 2.9713 5 
3520 1 162.394 11.9056 -3.2487 2.10819 5 
3521 1 163.304 10.7296 -0.939228 9.84039 5 
3597 1 163.023 13.8176 -13.39 8.00189e-05 1 
3598 1 164.107 11.3029 -14.2171 6.61099e-05 1 
3599 1 164.605 12.2706 -11.5609 0.000275598 1 
3600 1 161.986 11.3865 -12.2954 0.000251584 1 
3601 1 162.489 12.3526 -9.636 0.00141817 1 
3602 1 163.567 9.84201 -10.4624 0.00113211 1 
3603 1 164.062 10.8048 -7.78035 0.00739498 1 
3604 1 161.451 9.92431 -8.54135 0.00330448 1 
3605 1 161.967 10.8716 -5.85212 0.076278 1 
3606 1 163.022 8.38584 -6.68284 0.0420588 1 
3607 1 163.537 9.32183 -3.84978 2.19423 5 
3608 1 160.902 8.44309 -4.82083 0.147673 1 
3609 1 161.258 9.45908 -2.23277 9.66697 5 
3610 1 162.433 6.98458 -2.88816 3.12992 5 
3611 1 160.076 7.04827 -0.971811 9.9376 5 
3697 1 161.485 10.4171 -14.95 6.14367e-05 1 
3699 1 163.068 8.87256 -13.1266 0.000240009 1 
3700 1 160.446 7.98553 -13.8633 0.000123578 1 
3701 1 160.948 8.95651 -11.2062 0.000524176 1 
3702 1 162.027 6.44187 -12.0434 0.00067157 1 
3703 1 162.525 7.41573 -9.3739 0.00376847 1 
3704 1 159.905 6.52428 -10.1256 0.000977782 1 
3705 1 160.401 7.48889 -7.4659 0.00692987 1 
3706 1 161.469 4.98092 -8.30849 0.00641329 1 
3707 1 161.941 5.94656 -5.6354 0.0539468 1 
3708 1 159.35 5.05148 -6.34709 0.0132627 1 
3709 1 159.841 6.01201 -3.64877 0.224035 1 
3710 1 160.867 3.53363 -4.47975 0.401804 1 
3711 1 161.298 4.67823 -1.64907 7.16528 5 
3712 1 158.829 3.56359 -2.33716 3.61523 5 
3801 1 161.528 5.46746 -14.6996 0.000144855 1 
3803 1 159.405 5.5523 -12.7815 0.000207516 1 
3804 1 160.485 3.03112 -13.6215 0.000241265 1 
3805 1 160.98 4.00672 -10.9701 0.00110372 1 
3806 1 158.362 3.1179 -11.699 0.000452365 1 
3807 1 158.861 4.09287 -9.03678 0.00285287 1 
3808 1 159.934 1.5719 -9.89305 0.00491111 1 
3809 1 160.413 2.5603 -7.21966 0.0463584 1 
3810 1 157.82 1.66808 -7.94581 0.011571 1 
3811 1 158.305 2.62846 -5.21488 0.0750758 1 
3812 1 159.386 0.131092 -6.17402 0.0711566 1 
3813 1 159.881 1.09313 -3.39916 6.73916 5 
3814 1 157.275 0.222569 -4.19178 6.05442 5 
3815 1 157.556 1.82713 -0.589138 5.23874 5 
3904 1 157.863 2.14245 -14.3496 9.46391e-05 1 
3905 1 159.441 0.592766 -12.5428 0.000660248 1 
3906 1 157.32 0.684413 -10.6159 0.00163133 1 
4248 1 535.665 40.2527 -1.98123 7.15033 5 
4249 1 533.528 40.6476 -0.374351 10.3951 5 
4250 1 535.026 39.7072 -10.7728 0.00257144 1 
4251 1 532.895 39.8061 -8.85152 0.00996536 1 
4252 1 534.513 38.2259 -7.13181 0.0399107 1 
4253 1 535.053 39.2508 -4.60798 0.292163 1 
4254 1 532.393 38.3639 -5.26686 0.145489 1 
4255 1 533.076 39.305 -2.71714 6.66797 5 
4256 1 534.026 36.8229 -3.5641 0.701517 1 
4257 1 534.947 37.9937 -0.639655 8.4067 5 
4258 1 532.242 36.983 -1.54662 5.22281 5 
4264 1 534.53 38.7341 -13.3986 0.000539489 1 
4265 1 531.905 37.8488 -14.1162 0.000284654 1 
4266 1 532.402 38.8238 -11.4834 0.00142957 1 
4267 1 533.494 36.2882 -12.318 0.0011471 1 
4268 1 533.997 37.2544 -9.70762 0.00617282 1 
4269 1 531.362 36.3801 -10.4087 0.00303208 1 
4270 1 531.859 37.3548 -7.80982 0.0220129 1 
4271 1 532.968 34.8087 -8.62615 0.00632219 1 
4272 1 533.494 35.7824 -6.06797 0.0339567 1 
4273 1 530.831 34.9098 -6.71824 0.0239312 1 
4274 1 531.414 35.9489 -4.18598 0.139185 1 
4275 1 532.491 33.3394 -4.97016 0.062856 1 
4276 1 533.008 34.3442 -2.43941 6.58111 5 
4277 1 530.432 33.5232 -3.15901 0.371778 1 
4278 1 531.212 34.6622 -0.460646 4.01313 5 
4279 1 531.916 32.0208 -1.29749 5.32218 5 
4295 1 532.993 35.3213 -14.9455 0.000253991 1 
4297 1 530.866 35.4085 -13.0309 0.000545797 1 
4298 1 531.956 32.882 -13.8542 0.000339168 1 
4299 1 532.459 33.8458 -11.2287 0.00157574 1 
4300 1 529.826 32.9723 -11.9397 0.000664441 1 
4301 1 530.324 33.9432 -9.3192 0.00275203 1 
4302 1 531.42 31.4106 -10.1345 0.00214755 1 
4303 1 531.933 32.3756 -7.5348 0.00912452 1 
4304 1 529.279 31.513 -8.22692 0.00382958 1 
4305 1 529.796 32.4685 -5.63046 0.060727 1 
4306 1 349.488 29.956 -6.43629 0.0119463 1 
4307 1 531.457 30.9139 -3.82899 0.201814 1 
4308 1 347.328 30.061 -4.54671 0.135594 1 
4309 1 529.307 31.1518 -2.13621 5.96589 5 
4310 1 348.994 28.5519 -2.67969 0.556871 1 
4311 1 346.683 28.7427 -1.00663 9.16146 5 
4337 1 529.329 32.0022 -14.573 0.000150449 1 
4339 1 349.524 30.4468 -12.7603 0.000414821 1 
4340 1 346.895 29.5684 -13.4808 0.000167472 1 
4341 1 528.783 30.5407 -10.8469 0.000782272 1 
4342 1 348.482 28.0153 -11.6669 0.000389516 1 
4343 1 348.98 28.9833 -9.03889 0.00239118 1 
4344 1 346.345 28.1118 -9.75345 0.00152115 1 
4345 1 346.827 29.0904 -7.12648 0.0152397 1 
4346 1 347.94 26.5542 -7.95274 0.00360587 1 
4347 1 348.446 27.5373 -5.34247 0.0237148 1 
4348 1 345.798 26.6672 -6.06853 0.030487 1 
4349 1 346.348 27.6511 -3.50003 0.266769 1 
4350 1 347.392 25.1129 -4.2608 0.040353 1 
4351 1 348.006 26.1309 -1.61693 5.97016 5 
4352 1 345.331 25.2561 -2.38077 1.74305 5 
4390 1 347.984 27.0454 -14.304 8.66654e-05 1 
4392 1 345.854 27.1354 -12.3896 0.000212658 1 
4393 1 346.943 24.6107 -13.213 0.000123412 1 
4394 1 347.441 25.5829 -10.5781 0.000541042 1 
4395 1 344.814 24.6997 -11.302 0.000408528 1 
4396 1 345.306 25.6785 -8.67393 0.00343983 1 
4397 1 346.402 23.147 -9.4871 0.000947406 1 
4398 1 346.903 24.1156 -6.86106 0.00918905 1 
4399 1 344.277 23.2392 -7.58763 0.00833941 1 
4400 1 344.765 24.2496 -4.99754 0.0351393 1 
4401 1 345.879 21.6845 -5.72872 0.0544432 1 
4402 1 346.332 22.7516 -3.13996 2.22998 5 
4403 1 343.726 21.8682 -3.89701 0.156831 1 
4404 1 344.374 22.984 -1.08023 6.73073 5 
4405 1 345.259 20.3797 -2.16839 5.5893 5 
4455 1 344.319 23.7247 -13.9387 8.19284e-05 1 
4456 1 345.406 21.2033 -14.7604 4.65814e-05 1 