ITEM: TIMESTEP
0
ITEM: NUMBER OF ATOMS
4783
ITEM: BOX BOUNDS xy xz yz pp pp ss
-6.0177074525999998e+01 4.6882139455999997e+01 -6.0177074525999998e+01
0.0000000000000000e+00 5.7164409395000000e+01 0.0000000000000000e+00
-1.0446161959767929e+02 1.1614585876363698e+02 0.0000000000000000e+00
ITEM: ATOMS id type x y z c_csym c_cna 
1 1 11.3167 0.73297 0.745877 12.7313 5 
2 1 6.64277 0.566743 -0.496287 12.2305 5 
3 1 5.00474 2.84573 0.487159 5.19159 5 
4 1 2.57782 1.39989 -0.404187 11.4063 5 
5 1 2.54683 4.37425 -0.192836 11.4647 5 
6 1 -60.0071 57.1547 -0.00124841 12.0284 5 
7 1 34.7602 0.746248 0.746156 12.7008 5 
8 1 30.0848 0.561141 -0.496578 12.2553 5 
9 1 28.4462 2.83582 0.483434 5.16847 5 
10 1 25.991 4.35775 -0.194614 11.3918 5 
11 1 26.0169 1.39003 -0.408151 11.3607 5 
12 1 -36.5648 57.1375 -0.00169059 12.0612 5 
13 1 22.8323 2.21186 -1.26856 4.22661 5 
14 1 23.06 4.84115 0.0504073 5.93944 5 
15 1 20.3065 5.25358 -0.450032 9.35051 5 
16 1 18.7702 7.81958 0.582445 9.99481 5 
17 1 20.6911 0.223329 -0.0857877 11.0459 5 
18 1 19.5994 0.00338911 -2.60848 0.272341 1 
19 1 20.0284 2.63509 -1.42605 7.12138 5 
20 1 18.0678 1.13994 -0.167035 11.8157 5 
21 1 17.1801 3.08415 -1.90779 6.55788 5 
22 1 17.6095 5.63546 -1.01215 7.09244 5 
23 1 16.0023 3.80844 0.735729 11.4992 5 
24 1 14.7944 6.30277 -1.39656 7.04707 5 
25 1 15.2292 9.01822 -0.426853 8.48725 5 
26 1 12.4165 9.42547 -0.167268 9.3282 5 
27 1 9.68682 12.7024 0.132632 9.57196 5 
28 1 16.8158 0.467828 -2.92539 0.204735 1 
29 1 15.3173 1.27842 -0.741688 2.63817 5 
30 1 14.0227 0.908409 -3.27071 0.203649 1 
31 1 14.4602 3.61682 -2.23036 0.662129 5 
32 1 12.5075 1.97304 -1.27325 6.78556 5 
33 1 13.1396 4.66417 -0.0413766 8.4218 5 
34 1 11.4971 4.1878 -2.41508 1.00876 1 
35 1 11.9693 6.85041 -1.42391 1.64312 5 
36 1 10.1757 5.05979 -0.00716178 8.94892 5 
37 1 9.18982 7.26629 -1.94626 0.468958 1 
38 1 9.50503 10.0512 -0.947438 6.38865 5 
39 1 7.54283 8.26845 0.0443703 7.14613 5 
40 1 6.76513 10.5475 -1.42145 2.45335 5 
41 1 7.07665 13.7316 0.277774 11.6543 5 
42 1 4.35803 13.7135 -0.51689 2.33424 5 
43 1 5.17693 16.2628 0.974214 12.5898 5 
44 1 1.41205 16.95 0.054391 8.44599 5 
45 1 11.1322 1.4623 -3.55892 0.34633 1 
46 1 9.56927 2.29293 -1.04763 7.06681 5 
47 1 8.40563 1.99698 -3.89404 0.307466 1 
48 1 8.80814 4.59283 -2.84445 0.39911 1 
49 1 6.80384 2.95868 -1.77675 6.90474 5 
50 1 7.19928 5.70025 -0.898594 7.49779 5 
51 1 5.93048 5.14339 -3.31807 0.194456 1 
52 1 6.31956 7.84342 -2.42748 0.266872 1 
53 1 4.47621 6.06303 -1.04088 5.63919 5 
54 1 4.81932 8.85849 -0.367677 7.63507 5 
55 1 3.46698 8.30861 -2.64101 0.38707 1 
56 1 3.86274 11.1166 -1.50109 1.2446 1 
57 1 2.02852 9.36752 -0.265682 2.66657 5 
58 1 1.06099 11.5424 -1.72897 2.61092 5 
59 1 1.51533 14.1978 -1.05841 6.76317 5 
60 1 6.40982 0.2295 -3.03509 7.01899 5 
61 1 5.55543 2.4891 -4.32524 0.120509 1 
62 1 3.61985 0.722195 -3.07621 4.32716 5 
63 1 4.0467 3.31199 -2.12629 6.425 5 
64 1 2.75848 2.95554 -4.62464 0.0562779 1 
65 1 3.12248 5.63362 -3.51825 0.25795 1 
66 1 1.20293 3.88788 -2.4418 1.07262 5 
67 1 1.54319 6.68532 -1.22156 1.23683 1 
68 1 0.349931 6.15645 -3.85809 0.0849552 1 
69 1 0.73161 8.80703 -2.90115 0.205948 1 
70 1 2.4165 0.296535 -5.62144 0.0224714 1 
71 1 0.890273 1.17597 -3.30663 0.697604 5 
72 1 -0.383386 4.86225 0.0547257 5.93287 5 
73 1 -0.608979 2.23094 -1.26356 4.209 5 
74 1 44.129 0.239502 -0.0855466 11.1087 5 
75 1 43.4719 2.66404 -1.42102 7.13029 5 
76 1 -3.13841 5.30162 -0.454187 9.51409 5 
77 1 -5.82313 5.67774 -1.01883 7.34637 5 
78 1 -4.70082 7.95211 0.625679 9.26149 5 
79 1 -8.17089 9.12841 -0.441253 8.65714 5 
80 1 43.0413 0.0208404 -2.60591 0.2849 1 
81 1 41.5124 1.17385 -0.163782 11.8566 5 
82 1 40.2622 0.483689 -2.9224 0.211212 1 
83 1 40.624 3.1132 -1.90744 6.53916 5 
84 1 38.7637 1.29918 -0.743664 2.60504 5 
85 1 39.449 3.85187 0.734938 11.4051 5 
86 1 37.9022 3.63379 -2.23306 0.660101 5 
87 1 38.2307 6.33118 -1.41121 7.07509 5 
88 1 36.5927 4.6882 -0.0411177 8.47384 5 
89 1 35.4107 6.83353 -1.44511 1.47894 5 
90 1 35.8706 9.33902 -0.267431 8.8025 5 
91 1 32.9734 10.0313 -0.937191 6.85322 5 
92 1 32.9949 12.6505 0.140413 7.08031 5 
93 1 30.4332 13.7278 0.275276 10.9116 5 
94 1 28.5009 16.2772 0.946884 13.129 5 
95 1 37.469 0.917243 -3.27278 0.205532 1 
96 1 35.9555 1.97962 -1.27555 6.76959 5 
97 1 34.5777 1.46405 -3.56141 0.345024 1 
98 1 34.9437 4.18809 -2.42182 0.991611 1 
99 1 33.0154 2.2961 -1.0497 7.07151 5 
100 1 33.6196 5.05508 -0.0149234 8.83887 5 
101 1 32.253 4.58596 -2.8548 0.395371 1 
102 1 32.6352 7.25641 -1.9497 0.467904 1 
103 1 30.6408 5.68228 -0.909529 7.57574 5 
104 1 30.9851 8.22528 0.0453708 6.77793 5 
105 1 29.7692 7.83435 -2.43299 0.298868 1 
106 1 30.2283 10.5429 -1.35006 1.83775 5 
107 1 28.2562 8.83111 -0.391105 7.27425 5 
108 1 27.289 11.0927 -1.52211 0.986671 1 
109 1 27.6983 13.7154 -0.514142 1.8779 5 
110 1 24.8773 14.1405 -0.939992 0.361013 1 
111 1 25.1363 16.9168 -0.00297935 4.03417 5 
112 1 22.3646 17.2842 -0.579014 10.7935 5 
113 1 20.293 20.4819 0.350309 4.11192 5 
114 1 31.8493 1.99254 -3.89942 0.302686 1 
115 1 29.8535 0.224194 -3.03647 6.99205 5 
116 1 30.2492 2.95119 -1.77863 6.90468 5 
117 1 28.999 2.48115 -4.33021 0.12019 1 
118 1 29.3739 5.13333 -3.32709 0.191304 1 
119 1 27.4905 3.2997 -2.13118 6.39185 5 
120 1 27.9195 6.04464 -1.0509 5.66938 5 
121 1 26.5664 5.61719 -3.52924 0.242278 1 
122 1 26.909 8.28952 -2.65594 0.418203 1 
123 1 24.9881 6.66225 -1.23294 1.14144 1 
124 1 25.4707 9.34927 -0.266599 2.35027 5 
125 1 24.1759 8.78768 -2.89897 0.123007 1 
126 1 24.5596 11.4863 -1.88733 0.285251 1 
127 1 22.68 9.75984 -0.792783 5.48869 5 
128 1 22.9968 12.5302 0.186347 8.6477 5 
129 1 21.6959 11.9259 -2.275 0.303278 1 
130 1 22.0026 14.6175 -1.26666 1.43017 5 
131 1 20.1261 12.4418 0.0222086 12.3905 5 
132 1 19.3524 15.1347 -1.44543 1.70304 5 
133 1 19.6105 17.98 -0.64977 6.08731 5 
134 1 16.775 18.3696 -0.84052 7.1333 5 
135 1 17.4775 20.8788 -0.221884 9.41101 5 
136 1 14.4812 21.2273 -0.0987884 11.1908 5 
137 1 11.5697 24.648 0.0380899 9.6862 5 
138 1 27.0627 0.712905 -3.07951 4.31222 5 
139 1 25.8588 0.288204 -5.62594 0.021924 1 
140 1 26.2011 2.94457 -4.62942 0.0533634 1 
141 1 24.3324 1.16349 -3.31321 0.678701 5 
142 1 24.6456 3.87174 -2.44358 1.04712 5 
143 1 23.4298 3.44549 -4.9499 0.0398168 1 
144 1 23.7932 6.14054 -3.86045 0.0915848 1 
145 1 21.8909 4.41195 -2.68105 0.161724 1 
146 1 22.2268 7.07039 -1.52726 3.7863 5 
147 1 21.0476 6.59616 -4.26356 0.073926 1 
148 1 21.3801 9.24203 -3.26424 0.117479 1 
149 1 19.4947 7.44729 -2.12165 5.47843 5 
150 1 19.8241 9.96642 -1.03411 10.1188 5 
151 1 18.5593 9.78181 -3.56107 0.27302 1 
152 1 18.9211 12.4304 -2.53901 0.434232 1 
153 1 17.1599 10.8394 -0.996921 8.25908 5 
154 1 17.3259 13.636 -0.385732 4.42666 5 
155 1 16.1152 12.926 -2.83045 0.249872 1 
156 1 16.5005 15.6408 -2.01742 0.543991 1 
157 1 14.5195 13.8761 -0.488778 5.60202 5 
158 1 15.0496 16.5035 0.0687937 8.58299 5 
159 1 13.624 16.062 -2.28289 0.209242 1 
160 1 13.9177 18.7372 -1.36529 2.1496 5 
161 1 12.0751 16.9531 0.0758592 9.98575 5 
162 1 11.1806 19.2842 -1.94414 6.50481 5 
163 1 11.7225 22.0335 -0.813797 8.43346 5 
164 1 8.89824 22.4129 -1.11165 6.58446 5 
165 1 8.91288 25.1871 0.211279 12.0163 5 
166 1 6.24924 25.5315 -0.512496 2.19897 5 
167 1 4.61396 29.3111 0.710997 11.8468 5 
168 1 23.0974 0.787162 -5.93537 0.0384095 1 
169 1 21.5186 1.71791 -3.73427 0.0913737 1 
170 1 20.2987 1.28003 -6.31427 0.00536955 1 
171 1 20.6708 3.94114 -5.29279 0.0153526 1 
172 1 18.7508 2.19789 -4.10235 0.0324996 1 
173 1 19.1328 4.80282 -3.11986 0.12666 1 
174 1 17.8678 4.42957 -5.65812 0.00987537 1 
175 1 18.2365 7.09088 -4.63772 0.0405915 1 
176 1 16.3195 5.34604 -3.49467 0.119577 1 
177 1 16.7808 8.01696 -2.35882 6.03116 5 
178 1 15.4185 7.61395 -4.90807 0.0736508 1 
179 1 15.7899 10.2729 -3.80767 0.268069 1 
180 1 13.8007 8.55804 -2.71316 0.559984 1 
181 1 14.2082 11.2446 -1.66775 0.833506 5 
182 1 12.9762 10.7739 -4.26629 0.0125982 1 
183 1 13.3277 13.4335 -3.22322 0.099181 1 
184 1 11.3949 11.6743 -2.09418 0.276209 1 
185 1 11.6406 14.414 -1.1199 2.98365 5 
186 1 10.529 13.9097 -3.69287 0.0987201 1 
187 1 10.835 16.6172 -2.64406 0.626857 5 
188 1 8.87922 14.8882 -1.66693 7.35404 5 
189 1 9.43164 18.0762 -0.190052 12.8012 5 
190 1 8.05849 17.1496 -2.9925 0.438521 5 
191 1 8.38392 19.8269 -2.04916 5.3694 5 
192 1 6.61419 18.03 -0.796335 4.78818 5 
193 1 7.72716 20.3795 0.760219 11.8899 5 
194 1 5.5705 20.2158 -2.24927 5.66799 5 
195 1 5.89736 22.8503 -1.4195 1.72286 5 
196 1 3.85591 21.2772 -0.231945 5.24131 5 
197 1 3.07613 23.4321 -1.76035 1.83536 5 
198 1 3.50855 26.0412 -1.09797 8.48707 5 
199 1 0.583458 26.3902 -1.12441 10.9867 5 
200 1 2.15165 28.1675 0.172455 9.72868 5 
201 1 17.4976 1.77234 -6.65623 0.00258175 1 
202 1 15.56 0.0298136 -5.46161 0.0112106 1 
203 1 15.9401 2.68654 -4.46173 0.0316372 1 
204 1 14.6791 2.27788 -6.97231 0.0131937 1 
205 1 15.0441 4.93426 -5.97696 0.0249737 1 
206 1 13.1055 3.19053 -4.69228 0.171717 1 
207 1 13.461 5.85534 -3.77262 0.193943 1 
208 1 12.2559 5.43091 -6.30345 0.00899307 1 
209 1 12.6212 8.10778 -5.29311 0.0147713 1 
210 1 10.7156 6.36155 -4.0764 0.0570199 1 
211 1 11.0831 9.03443 -3.04091 0.175684 1 
212 1 9.83848 8.59663 -5.64773 0.0151971 1 
213 1 10.168 11.2662 -4.65828 0.0158432 1 
214 1 8.28697 9.52035 -3.51059 0.113428 1 
215 1 8.58821 12.2572 -2.47498 0.715739 5 
216 1 7.34977 11.7604 -5.02044 0.0340499 1 
217 1 7.66579 14.4396 -4.06955 0.150421 1 
218 1 5.8138 12.7796 -2.7553 0.537313 5 
219 1 6.13545 15.4492 -1.74271 4.12345 5 
220 1 4.88689 14.9642 -4.31738 0.0292746 1 
221 1 5.20666 17.6086 -3.32811 0.0916997 1 
222 1 3.349 15.9276 -1.98679 1.12325 5 
223 1 3.59301 18.4948 -1.05937 1.34766 5 
224 1 2.39619 18.0647 -3.69011 0.0615597 1 
225 1 2.77317 20.6856 -2.79161 0.208232 1 
226 1 0.73719 19.0572 -1.521 1.87783 5 
227 1 1.11053 21.7076 -0.83451 8.15714 5 
228 1 0.269917 23.8883 -2.30425 4.61227 5 
229 1 12.7487 0.531251 -5.76666 0.0237565 1 
230 1 11.5417 0.110913 -8.32748 0.00148044 1 
231 1 11.8969 2.77753 -7.30229 0.00697268 1 
232 1 9.96919 1.03597 -6.12211 0.0158412 1 
233 1 10.3337 3.70829 -5.0815 0.0310676 1 
234 1 9.09964 3.27449 -7.65816 0.00142856 1 
235 1 9.46702 5.93556 -6.65392 0.00362006 1 
236 1 7.5357 4.20524 -5.45601 0.0232691 1 
237 1 7.90891 6.8403 -4.47703 0.0521431 1 
238 1 6.65315 6.43404 -7.01983 0.00509941 1 
239 1 7.00075 9.09636 -6.01033 0.014924 1 
240 1 5.05208 7.36803 -4.84729 0.0657227 1 
241 1 5.39077 10.0689 -3.80451 0.136454 1 
242 1 4.18561 9.61935 -6.34407 0.0113557 1 
243 1 4.55551 12.287 -5.32686 0.0163771 1 
244 1 2.60671 10.5736 -4.08434 0.0769341 1 
245 1 3.0036 13.2134 -3.12526 0.167117 1 
246 1 1.74362 12.7674 -5.66682 0.0126208 1 
247 1 2.10287 15.4203 -4.63752 0.0963916 1 
248 1 0.136095 13.6729 -3.44013 0.244085 1 
249 1 0.436137 16.3215 -2.50607 0.412694 1 
250 1 8.74339 0.610919 -8.67535 0.00217156 1 
251 1 7.16407 1.53687 -6.45786 0.0437715 1 
252 1 5.94401 1.11027 -9.02889 0.00313832 1 
253 1 6.29627 3.77467 -8.01365 0.00312546 1 
254 1 4.34768 2.04398 -6.8456 0.0164536 1 
255 1 4.69397 4.71188 -5.81593 0.0304842 1 
256 1 3.48848 4.27979 -8.36609 0.00345217 1 
257 1 3.84005 6.94221 -7.36427 0.00518676 1 
258 1 1.91246 5.21182 -6.1248 0.0175932 1 
259 1 2.2644 7.86772 -5.14 0.0293566 1 
260 1 1.04833 7.43925 -7.69303 0.0012461 1 
261 1 1.39933 10.1062 -6.67412 0.00633661 1 
262 1 3.13854 1.60902 -9.38174 0.00183331 1 
263 1 1.55977 2.53765 -7.16668 0.00441872 1 
264 1 0.344962 2.10466 -9.71804 0.000514238 1 
265 1 0.698836 4.7749 -8.70259 0.00170109 1 
266 1 -1.9386 11.9641 0.554235 6.18233 5 
267 1 -1.41577 14.4559 -0.956922 9.50788 5 
268 1 -1.3233 17.2228 -0.503184 11.1057 5 
269 1 -4.07553 17.8359 -0.88371 9.93584 5 
270 1 -3.04464 19.9701 0.51548 10.4472 5 
271 1 -5.82591 20.7445 -0.20913 10.5947 5 
272 1 -1.21265 7.07946 -1.53967 3.68323 5 
273 1 -0.793691 9.7299 -0.825414 8.17758 5 
274 1 -2.10053 9.27826 -3.25274 0.0605716 1 
275 1 -1.80604 11.9661 -2.27496 2.87181 5 
276 1 -3.66245 10.2007 -0.962341 9.19125 5 
277 1 -4.23217 12.9934 -0.251589 10.2574 5 
278 1 -4.58664 12.4521 -2.82141 2.64483 5 
279 1 -4.17862 15.1673 -1.8058 6.55767 5 
280 1 -7.03944 13.6391 -0.395386 6.6488 5 
281 1 -6.95629 15.6871 -2.14343 3.6915 5 
282 1 -6.77532 18.3448 -0.86652 8.13413 5 
283 1 -8.31583 16.4126 0.0640781 6.49456 5 
284 1 -9.55746 18.6991 -1.4003 2.1552 5 
285 1 -8.89973 21.1697 -0.145643 10.9284 5 
286 1 -11.6864 22.0112 -0.820226 8.41588 5 
287 1 -11.8287 24.6321 0.0219808 9.69157 5 
288 1 -14.4925 25.1673 0.160503 10.2538 5 
289 1 -0.343583 0.797213 -5.93073 0.0398968 1 
290 1 -0.0123283 3.45785 -4.94669 0.0416415 1 
291 1 44.9596 1.73231 -3.72991 0.09249 1 
292 1 -1.5503 4.42701 -2.68026 0.137872 1 
293 1 -2.77069 3.9588 -5.28616 0.0122571 1 
294 1 -2.40277 6.6239 -4.24695 0.0437019 1 
295 1 -4.30448 4.84189 -3.11292 0.110717 1 
296 1 -3.94918 7.54282 -2.07275 5.34775 5 
297 1 -5.20372 7.10466 -4.6312 0.032421 1 
298 1 -4.89951 9.78849 -3.58167 0.334188 1 
299 1 -6.67481 8.04094 -2.36352 5.91911 5 
300 1 -6.31276 11.0074 -1.0661 8.79598 5 
301 1 -7.67187 10.2797 -3.84173 0.412131 1 
302 1 -7.35571 12.9624 -3.03296 4.99085 5 
303 1 -9.21585 11.4184 -1.63157 2.85167 5 
304 1 -9.63385 14.1195 0.0569936 8.35599 5 
305 1 -10.1714 13.4524 -3.25185 1.22603 5 
306 1 -9.87392 16.0318 -2.30241 1.30771 5 
307 1 -12.0026 14.3387 -1.18565 2.95427 5 
308 1 -11.3575 16.8682 0.0144316 9.90811 5 
309 1 -12.6627 16.6023 -2.67476 0.818518 5 
310 1 -12.2812 19.2725 -1.96728 6.29713 5 
311 1 -13.9922 18.0846 -0.161392 12.9203 5 
312 1 -15.0563 19.8077 -2.05145 5.33544 5 
313 1 -14.5239 22.3837 -1.12361 6.53849 5 
314 1 -15.691 20.3882 0.806123 11.2192 5 
315 1 -17.5119 22.8526 -1.44505 1.77171 5 
316 1 -17.1837 25.5334 -0.524209 2.20613 5 
317 1 -19.8888 26.0848 -1.13433 8.04725 5 
318 1 -18.7953 29.263 0.692631 13.1808 5 
319 1 -21.25 28.2193 0.168052 10.7627 5 
320 1 43.7409 1.29165 -6.30983 0.00539611 1 
321 1 42.1944 2.21831 -4.09665 0.0311477 1 
322 1 40.9415 1.78045 -6.65417 0.00279899 1 
323 1 41.3108 4.44051 -5.65656 0.0084303 1 
324 1 39.3843 2.69813 -4.46112 0.0316493 1 
325 1 39.7608 5.36204 -3.49879 0.118555 1 
326 1 38.4858 4.93714 -5.98313 0.0241243 1 
327 1 38.8571 7.61694 -4.92355 0.0658834 1 
328 1 36.9047 5.87433 -3.77995 0.177973 1 
329 1 37.2572 8.60446 -2.7155 0.555776 1 
330 1 36.0602 8.1068 -5.30688 0.0138967 1 
331 1 -10.4707 10.7749 -4.29087 0.0649354 1 
332 1 34.5242 9.01981 -3.06475 0.13622 1 
333 1 -12.0634 11.6533 -2.14822 0.544711 1 
334 1 33.5933 11.2489 -4.69185 0.0158457 1 
335 1 -12.9686 13.8982 -3.74819 0.14622 1 
336 1 32.0161 12.2267 -2.50646 0.804223 5 
337 1 -14.6651 14.8556 -1.69549 8.10863 5 
338 1 31.0676 14.4205 -4.10542 0.220985 1 
339 1 -15.4111 17.1357 -3.0245 0.518311 5 
340 1 29.5141 15.4503 -1.7443 5.9716 5 
341 1 -16.8099 18.0139 -0.798098 4.63306 5 
342 1 -18.2185 17.5923 -3.37734 0.0745018 1 
343 1 -17.8306 20.2133 -2.30557 5.72503 5 
344 1 27.1441 18.4839 -1.12713 0.815284 5 
345 1 -19.5084 21.2552 -0.257587 7.10614 5 
346 1 -20.6034 20.6864 -2.83091 0.216558 1 
347 1 -20.2913 23.4435 -1.76105 1.31573 5 
348 1 -22.2253 21.6642 -0.859438 10.2698 5 
349 1 -22.9982 23.93 -2.23063 1.10676 5 
350 1 -22.7172 26.5595 -1.29059 9.66483 5 
351 1 -24.253 24.7317 0.0718498 5.6008 5 
352 1 -25.4428 27.2601 -1.2447 8.56001 5 
353 1 -25.1344 31.5477 0.500926 7.2646 5 
354 1 -27.5739 30.0475 -0.390942 9.9151 5 
355 1 -27.5747 32.9792 -0.188914 11.0973 5 
356 1 -30.4913 33.476 0.050424 5.73594 5 
357 1 39.005 0.0377614 -5.46089 0.0117902 1 
358 1 38.1228 2.28064 -6.97457 0.0131869 1 
359 1 36.1932 0.534975 -5.76857 0.0235637 1 
360 1 36.5504 3.19802 -4.69517 0.173278 1 
361 1 35.3402 2.77626 -7.30747 0.00724022 1 
362 1 35.6975 5.42955 -6.31182 0.00849073 1 
363 1 33.778 3.70549 -5.08814 0.0312644 1 
364 1 34.1574 6.35803 -4.08654 0.0493044 1 
365 1 32.9079 5.92901 -6.66421 0.00329854 1 
366 1 33.273 8.58746 -5.66346 0.0109771 1 
367 1 31.3519 6.83249 -4.48455 0.0525235 1 
368 1 31.7253 9.51329 -3.50356 0.0946456 1 
369 1 30.4417 9.08657 -6.01634 0.0181104 1 
370 1 30.7785 11.7456 -5.04175 0.0478613 1 
371 1 28.8465 10.0639 -3.78751 0.144463 1 
372 1 29.2472 12.7696 -2.72445 0.583207 5 
373 1 28.0017 12.2746 -5.33382 0.0295756 1 
374 1 28.323 14.9408 -4.35323 0.0267435 1 
375 1 26.4326 13.2145 -3.13018 0.0197767 1 
376 1 26.7693 15.882 -2.0762 0.573358 5 
377 1 25.5533 15.4107 -4.70367 0.0239436 1 
378 1 25.8814 18.0664 -3.74622 0.0252157 1 
379 1 23.9699 16.3103 -2.57249 0.149232 1 
380 1 24.3157 19.0399 -1.55153 1.12448 5 
381 1 23.0952 18.5438 -4.13022 0.0410394 1 
382 1 23.4329 21.2218 -3.23709 0.209627 1 
383 1 21.5927 19.5809 -1.90958 0.915232 5 
384 1 21.9246 22.2952 -0.931311 6.12663 5 
385 1 20.6664 21.7544 -3.48952 0.0775465 1 
386 1 21.1346 24.3762 -2.60049 0.815894 1 
387 1 19.1506 22.7145 -1.14487 4.81982 5 
388 1 19.7921 25.2666 -0.566285 11.247 5 
389 1 18.1607 24.8535 -2.78427 0.755577 1 
390 1 -28.326 27.4843 -1.83781 1.80798 5 
391 1 16.756 25.6942 -0.150832 12.2062 5 
392 1 -29.9985 28.5892 0.0198148 11.9738 5 
393 1 15.7296 27.987 -2.3042 0.883881 1 
394 1 -30.6845 30.8347 -1.24942 4.14029 5 
395 1 14.0111 28.7991 -0.087941 11.1695 5 
396 1 13.3861 31.2281 -1.41461 6.89776 5 
397 1 -33.2325 33.8559 -0.444838 9.36284 5 
398 1 -35.9249 34.2283 -1.01037 7.08554 5 
399 1 -34.7793 36.4295 0.576517 10.0182 5 
400 1 -38.296 37.6092 -0.424711 8.40263 5 
401 1 34.985 0.11006 -8.33089 0.00140385 1 
402 1 33.413 1.03419 -6.12628 0.0154622 1 
403 1 32.1859 0.607199 -8.68027 0.00212632 1 
404 1 32.5421 3.26947 -7.66532 0.00151096 1 
405 1 30.6071 1.53179 -6.46361 0.0427971 1 
406 1 30.9785 4.19816 -5.46431 0.0227974 1 
407 1 29.7379 3.76744 -8.02148 0.00302257 1 
408 1 30.0946 6.42562 -7.02886 0.00477632 1 
409 1 28.1371 4.70246 -5.82393 0.0290744 1 
410 1 28.4973 7.35942 -4.85446 0.0665859 1 
411 1 27.2819 6.93141 -7.37351 0.00439179 1 
412 1 27.638 9.60408 -6.36124 0.0066189 1 
413 1 25.7084 7.85174 -5.15052 0.0243433 1 
414 1 26.0735 10.5439 -4.13814 0.0316645 1 
415 1 24.8415 10.0926 -6.69337 0.00236272 1 
416 1 25.1935 12.7548 -5.69395 0.00227611 1 
417 1 23.2867 11.0151 -4.4526 0.0179198 1 
418 1 23.6067 13.6741 -3.47964 0.0223411 1 
419 1 22.39 13.2286 -6.0426 0.0033085 1 
420 1 22.7372 15.8821 -5.09245 0.0131102 1 
421 1 20.8108 14.1539 -3.82795 0.0647213 1 
422 1 21.1281 16.831 -2.93474 0.301856 1 
423 1 19.9288 16.3883 -5.41756 0.0196439 1 
424 1 20.3159 19.0657 -4.46376 0.0302336 1 
425 1 18.3822 17.3368 -3.15954 0.13718 1 
426 1 18.7916 19.9986 -2.33951 0.624165 1 
427 1 17.4941 19.5443 -4.78683 0.0367083 1 
428 1 17.8721 22.2146 -3.76709 0.106567 1 
429 1 15.8972 20.4711 -2.56322 0.421975 1 
430 1 16.2433 23.1216 -1.5941 1.9238 5 
431 1 15.0835 22.6761 -4.20146 0.0664062 1 
432 1 15.4487 25.3458 -3.21063 0.355155 1 
433 1 13.4537 23.6295 -2.17425 1.04694 5 
434 1 13.8708 26.2675 -1.14362 3.65504 5 
435 1 12.6332 25.8606 -3.67345 0.112562 1 
436 1 12.9574 28.5893 -2.60939 0.317959 1 
437 1 11.129 26.818 -1.60841 3.71667 5 
438 1 11.4141 29.748 -0.153443 11.8496 5 
439 1 10.1786 29.0465 -2.9125 0.215358 1 
440 1 10.5327 31.674 -1.90681 6.6128 5 
441 1 8.66826 29.8646 -0.738696 2.52124 5 
442 1 9.33901 32.404 0.728721 9.85826 5 
443 1 7.81358 32.1993 -2.22738 0.640763 5 
444 1 8.14289 34.8865 -1.39222 2.62253 5 
445 1 6.4788 33.246 -0.0461649 8.30033 5 
446 1 5.32035 35.4317 -1.42096 1.60148 5 
447 1 5.77235 38.0115 -0.16633 9.30019 5 
448 1 2.86753 38.6284 -0.944609 6.43936 5 
449 1 3.0364 41.286 0.132248 9.46711 5 
450 1 0.39278 42.2337 0.249778 11.2188 5 
451 1 29.3855 1.10468 -9.03424 0.00308211 1 
452 1 27.7899 2.0365 -6.85073 0.0161047 1 
453 1 26.5793 1.60249 -9.3865 0.00174601 1 
454 1 26.9294 4.27131 -8.37279 0.00340706 1 
455 1 25.0012 2.52871 -7.1713 0.00412808 1 
456 1 25.3543 5.1997 -6.13136 0.0177889 1 
457 1 24.1393 4.76664 -8.70814 0.0016589 1 
458 1 24.4899 7.42884 -7.70113 0.00124158 1 
459 1 22.5831 5.69133 -6.482 0.00913917 1 
460 1 22.9334 8.35188 -5.46808 0.00815726 1 
461 1 21.6964 7.92414 -8.03353 0.00103922 1 
462 1 22.0451 10.5786 -7.02533 0.00172558 1 
463 1 20.1274 8.84327 -5.80321 0.00952136 1 
464 1 20.4714 11.4913 -4.79862 0.012326 1 
465 1 19.2433 11.0743 -7.35841 0.00277755 1 
466 1 19.5894 13.7236 -6.37409 0.0059711 1 
467 1 17.6704 12.0034 -5.10071 0.015868 1 
468 1 18.0535 14.6564 -4.1085 0.0742087 1 
469 1 16.807 14.2246 -6.69694 0.00652739 1 
470 1 17.1489 16.8798 -5.73214 0.00597873 1 
471 1 15.2281 15.1413 -4.49174 0.0292657 1 
472 1 15.5876 17.8233 -3.50034 0.0916463 1 
473 1 14.3627 17.3677 -6.0941 0.00805134 1 
474 1 14.7099 20.0241 -5.15107 0.0140969 1 
475 1 12.7924 18.2795 -3.93453 0.0964166 1 
476 1 13.1632 20.9675 -2.97337 0.311115 1 
477 1 11.8988 20.5241 -5.49726 0.0206686 1 
478 1 12.2321 23.1916 -4.60288 0.0533725 1 
479 1 10.3173 21.4961 -3.33633 0.127722 1 
480 1 10.6295 24.169 -2.44719 0.5665 1 
481 1 9.41631 23.6928 -4.9091 0.0364383 1 
482 1 9.75912 26.3635 -3.95418 0.139399 1 
483 1 7.88241 24.6158 -2.61091 0.309108 1 
484 1 8.25615 27.2517 -1.66161 0.985275 5 
485 1 6.97898 26.8545 -4.20164 0.0524871 1 
486 1 7.38682 29.4796 -3.26707 0.216592 1 
487 1 5.44024 27.8301 -1.90252 2.08851 5 
488 1 5.87021 30.5396 -1.2771 6.74305 5 
489 1 4.50076 30.038 -3.5567 0.309213 1 
490 1 4.85627 32.762 -2.41274 0.904175 1 
491 1 2.93883 30.8727 -1.03416 6.56135 5 
492 1 3.50455 33.6441 -0.0239542 8.79962 5 
493 1 2.15261 33.1455 -2.80012 0.366357 1 
494 1 2.54415 35.8497 -1.93905 0.448374 1 
495 1 0.542275 34.2916 -0.897837 8.03891 5 
496 1 0.906 36.832 0.0622008 6.62348 5 
497 1 23.7849 2.09832 -9.72183 0.000469563 1 
498 1 21.8659 0.354974 -8.51185 0.00250247 1 
499 1 22.2185 3.02181 -7.50901 0.00286638 1 
500 1 20.9903 2.59364 -10.061 0.000279288 1 
501 1 21.3464 5.26129 -9.04879 0.000843437 1 
502 1 19.4255 3.51795 -7.85249 0.00118411 1 
503 1 19.7898 6.18161 -6.83287 0.00393097 1 
504 1 18.5456 5.75762 -9.38714 0.000846374 1 
505 1 18.8969 8.41926 -8.36949 0.00164937 1 
506 1 16.9752 6.68232 -7.16588 0.0071527 1 
507 1 17.3278 9.34637 -6.12996 0.0164183 1 
508 1 16.1026 8.91746 -8.7075 0.00216725 1 
509 1 16.4557 11.5729 -7.6946 0.00176586 1 
510 1 14.5546 9.84445 -6.45411 0.0276667 1 
511 1 14.8958 12.4924 -5.45686 0.00852035 1 
512 1 13.6664 12.0646 -8.05238 0.00205808 1 
513 1 14.0106 14.7172 -7.0667 0.00157318 1 
514 1 12.1043 12.9919 -5.84466 0.0118266 1 
515 1 12.4252 15.6458 -4.86225 0.0157919 1 
516 1 11.206 15.2162 -7.43496 0.00209008 1 
517 1 11.5511 17.867 -6.47246 0.00720167 1 
518 1 9.61956 16.1461 -5.22879 0.0336778 1 
519 1 9.93618 18.8058 -4.32371 0.140502 1 
520 1 8.73251 18.3774 -6.81969 0.00906813 1 
521 1 9.07598 21.0399 -5.85148 0.0103161 1 
522 1 7.14345 19.3242 -4.57971 0.0319233 1 
523 1 7.4805 21.9696 -3.61424 0.088731 1 
524 1 6.28314 21.5326 -6.17815 0.00514126 1 
525 1 6.64657 24.1884 -5.20716 0.0267554 1 
526 1 4.68588 22.4381 -3.97378 0.0439117 1 
527 1 5.09833 25.0627 -3.06233 0.284447 1 
528 1 3.84318 24.6792 -5.58256 0.0248428 1 
529 1 4.20575 27.3418 -4.53364 0.0916467 1 
530 1 2.22201 25.5864 -3.45181 0.210065 1 
531 1 2.6066 28.2865 -2.45891 4.77131 5 
532 1 1.36571 27.8782 -4.89594 0.0658123 1 
533 1 1.73944 30.5444 -3.80536 0.15316 1 
534 1 0.185032 31.4256 -1.56534 8.12458 5 
535 1 -39.5392 57.0887 -11.0628 0.000199773 1 
536 1 19.0652 0.850818 -8.86092 0.000669838 1 
537 1 17.8378 0.423261 -11.4036 0.000199567 1 
538 1 18.1908 3.09148 -10.4001 0.00029955 1 
539 1 16.2606 1.3523 -9.19442 0.001139 1 
540 1 16.6187 4.01499 -8.18936 0.00205614 1 
541 1 15.3919 3.59007 -10.7386 0.000221711 1 
542 1 15.7473 6.25519 -9.72615 0.000658042 1 
543 1 13.8205 4.51562 -8.52255 0.00128611 1 
544 1 14.1852 7.18286 -7.49809 0.00456529 1 
545 1 12.9531 6.75135 -10.0691 0.000571881 1 
546 1 13.3138 9.41175 -9.05248 0.00358576 1 
547 1 11.3882 7.6734 -7.85794 0.000808271 1 
548 1 11.7477 10.3364 -6.84808 0.00220137 1 
549 1 10.5106 9.90488 -9.41703 0.000464695 1 
550 1 10.8631 12.5615 -8.41958 0.00151898 1 
551 1 8.93528 10.8279 -7.21529 0.00168322 1 
552 1 9.28061 13.4884 -6.2309 0.00622467 1 
553 1 8.0519 13.0619 -8.77805 0.000834761 1 
554 1 8.39567 15.7221 -7.78651 0.00304627 1 
555 1 6.46251 14.0026 -6.57084 0.0102508 1 
556 1 6.813 16.6748 -5.55525 0.023077 1 
557 1 5.59694 16.2229 -8.13064 0.00225112 1 
558 1 5.93991 18.8776 -7.15149 0.00305036 1 
559 1 4.0112 17.1506 -5.90899 0.00674585 1 
560 1 4.37174 19.7967 -4.91832 0.0434207 1 
561 1 3.15658 19.3631 -7.51638 0.00606151 1 
562 1 3.49912 22.0193 -6.55265 0.00802499 1 
563 1 1.5708 20.2712 -5.35634 0.020034 1 
564 1 1.91493 22.9232 -4.38112 0.0507161 1 
565 1 0.703603 22.518 -6.9386 0.00867062 1 
566 1 1.03407 25.1976 -5.93835 0.0143127 1 
567 1 15.0396 0.923162 -11.7432 0.000159533 1 
568 1 13.4647 1.85201 -9.52982 0.000656801 1 
569 1 12.2433 1.42163 -12.0847 0.000149608 1 
570 1 12.5958 4.08753 -11.0797 0.000145305 1 
571 1 10.6711 2.34962 -9.87104 0.000626238 1 
572 1 11.0268 5.01111 -8.86495 0.000371228 1 
573 1 9.79948 4.58374 -11.4258 7.23987e-05 1 
574 1 10.1543 7.24581 -10.4205 0.000120693 1 
575 1 8.22873 5.50913 -9.21587 0.00046877 1 
576 1 8.5846 8.17084 -8.20952 0.00153145 1 
577 1 7.35304 7.7434 -10.7706 0.000265556 1 
578 1 7.70431 10.4026 -9.77158 0.000304306 1 
579 1 5.77413 8.67396 -8.56119 0.00145919 1 
580 1 6.12319 11.3352 -7.56232 0.00256106 1 
581 1 4.90131 10.9031 -10.12 0.000495952 1 
582 1 5.24904 13.563 -9.12479 0.00100662 1 
583 1 3.32427 11.8373 -7.89626 0.00275934 1 
584 1 3.67044 14.4955 -6.89647 0.00548057 1 
585 1 2.45598 14.0527 -9.47794 0.00083413 1 
586 1 2.80622 16.7076 -8.49525 0.00189263 1 
587 1 0.888083 14.9706 -7.26405 0.0102259 1 
588 1 1.23052 17.6169 -6.3039 0.0156636 1 
589 1 0.354951 19.8512 -7.90758 0.00358787 1 
590 1 9.44698 1.91894 -12.4301 0.000150955 1 
591 1 7.52166 0.179296 -11.2303 0.000370515 1 
592 1 7.8731 2.84756 -10.2217 0.000353966 1 
593 1 6.64847 2.41623 -12.7788 0.000126468 1 
594 1 7.00052 5.08121 -11.7751 8.46177e-05 1 
595 1 5.07207 3.34621 -10.5726 0.000399996 1 
596 1 5.42424 6.00942 -9.56857 0.00035188 1 
597 1 4.20006 5.57893 -12.1247 7.6035e-05 1 
598 1 4.55152 8.2421 -11.121 0.000246512 1 
599 1 2.62262 6.50969 -9.91442 0.000468915 1 
600 1 2.97334 9.17453 -8.90566 0.0013876 1 
601 1 1.75269 8.73683 -11.4703 0.00022961 1 
602 1 2.10508 11.396 -10.4709 0.000452922 1 
603 1 0.179582 9.66211 -9.25319 0.000800106 1 
604 1 0.532739 12.3172 -8.25813 0.00170616 1 
605 1 4.72093 0.677485 -11.5801 0.000310716 1 
606 1 3.4979 0.244385 -14.1285 8.39772e-05 1 
607 1 3.84869 2.91334 -13.1276 0.00010671 1 
608 1 1.92029 1.17444 -11.9264 0.000267136 1 
609 1 2.27151 3.84424 -10.9208 0.000486332 1 
610 1 1.04914 3.40922 -13.4745 0.000118159 1 
611 1 1.40068 6.07462 -12.4724 0.000131788 1 
612 1 0.698292 0.740786 -14.4741 7.38041e-05 1 
613 1 -1.69445 31.482 0.497039 7.51519 5 
614 1 -4.12923 32.9431 -0.196099 11.1857 5 
615 1 -0.0670971 21.1958 -3.24939 0.101766 1 
616 1 -1.70897 22.1414 -1.03178 8.94589 5 
617 1 -0.288364 23.9862 0.439147 8.51257 5 
618 1 -2.47 24.3832 -2.79288 6.23465 5 
619 1 -2.12813 27.1999 -1.33334 11.9973 5 
620 1 -2.82064 24.7505 -0.280984 15.0217 5 
621 1 -4.89991 27.426 -1.89703 3.64504 5 
622 1 -4.09524 29.9712 -0.358172 11.0148 5 
623 1 -6.48771 28.513 -0.00191403 12.0221 5 
624 1 -7.23409 30.781 -1.26231 4.18422 5 
625 1 -7.04399 33.4244 0.0547061 5.97587 5 
626 1 -9.78769 33.8336 -0.455133 11.7612 5 
627 1 -11.3324 36.4072 0.579653 9.93658 5 
628 1 -0.695668 15.8749 -5.09784 0.0303052 1 
629 1 -0.366345 18.5336 -4.16289 0.0531418 1 
630 1 -2.32377 16.7937 -2.98843 0.363042 1 
631 1 -1.96973 19.4935 -2.04421 2.77068 5 
632 1 -3.16089 19.0321 -4.55739 0.0341916 1 
633 1 -2.84415 21.7242 -3.58304 0.130767 1 
634 1 -4.70408 20.0007 -2.44349 1.45054 5 
635 1 -4.38864 22.7372 -1.17995 10.4649 5 
636 1 -5.61449 22.2266 -3.84811 0.0904201 1 
637 1 -5.27556 24.852 -2.77543 2.25939 5 
638 1 -7.19492 23.0834 -1.64132 2.00292 5 
639 1 -6.71716 25.6521 -0.221655 11.4266 5 
640 1 -8.00665 25.3312 -3.24326 0.310917 1 
641 1 -7.71627 27.9754 -2.32184 0.740549 1 
642 1 -9.56495 26.2481 -1.15684 3.45516 5 
643 1 -9.39907 28.7832 -0.0973279 11.0782 5 
644 1 -10.4775 28.5768 -2.61803 0.287124 1 
645 1 -10.0434 31.2078 -1.42391 7.01897 5 
646 1 -12.0112 29.7186 -0.171661 11.7824 5 
647 1 -12.8955 31.6636 -1.9109 6.60305 5 
648 1 -12.4798 34.2193 -1.01737 7.10438 5 
649 1 -14.0904 32.3837 0.728462 9.83788 5 
650 1 -15.2908 34.8895 -1.40773 6.99071 5 
651 1 -14.849 37.6048 -0.42853 8.45898 5 
652 1 -17.663 38.0096 -0.16421 9.38551 5 
653 1 -20.4034 41.2889 0.130871 9.43762 5 
654 1 -0.516985 8.36616 -5.45972 0.00699845 1 
655 1 -0.161696 11.0283 -4.41622 0.0774336 1 
656 1 -1.38668 10.5797 -7.03102 0.00757318 1 
657 1 -1.03983 13.2265 -6.06121 0.0125807 1 
658 1 -2.96352 11.4889 -4.85444 0.0493628 1 
659 1 -2.59552 14.1583 -3.87552 0.268785 1 
660 1 -3.84811 13.7158 -6.42987 0.0129806 1 
661 1 -3.52004 16.3807 -5.50144 0.0170258 1 
662 1 -5.44244 14.6725 -4.29771 0.0542183 1 
663 1 -5.14471 17.3616 -3.35358 0.227477 1 
664 1 -6.34223 16.8851 -5.83959 0.0187099 1 
665 1 -5.99513 19.5613 -4.87543 0.0498397 1 
666 1 -7.92014 17.841 -3.58507 0.130012 1 
667 1 -7.55519 20.4546 -2.59924 0.549009 1 
668 1 -8.76691 20.0287 -5.20251 0.0133133 1 
669 1 -8.38155 22.6692 -4.24293 0.0666063 1 
670 1 -10.2917 20.9507 -3.00791 0.343073 1 
671 1 -9.9935 23.6188 -2.20428 1.07478 5 
672 1 -11.2184 23.1868 -4.63174 0.0550689 1 
673 1 -10.8106 25.8541 -3.69146 0.103104 1 
674 1 -12.8054 24.1545 -2.45715 0.493857 1 
675 1 -12.3079 26.8027 -1.62181 3.59551 5 
676 1 -13.6697 26.3596 -3.97366 0.132824 1 
677 1 -13.2511 29.0403 -2.92595 0.200188 1 
678 1 -15.1672 27.2474 -1.67851 1.00262 5 
679 1 -14.761 29.8559 -0.74874 2.53008 5 
680 1 -16.034 29.491 -3.28348 0.195102 1 
681 1 -15.6133 32.202 -2.23471 0.664134 5 
682 1 -17.5594 30.546 -1.28728 6.7304 5 
683 1 -16.9341 33.246 -0.0398105 8.48306 5 
684 1 -18.5684 32.7741 -2.41769 0.918391 1 
685 1 -18.1137 35.4328 -1.42156 1.65144 5 