ITEM: TIMESTEP
0
ITEM: NUMBER OF ATOMS
2960
ITEM: BOX BOUNDS xy xz yz pp pp ss
0.0000000000000000e+00 3.9770210495000001e+01 2.6513473660000000e+00
0.0000000000000000e+00 4.4655070901000002e+01 0.0000000000000000e+00
-1.0055884925896936e+02 1.0681413039593593e+02 0.0000000000000000e+00
ITEM: ATOMS id type x y z c_csym c_cna 
5046 1 18.9367 43.4184 -14.4892 5.25017e-05 1 
5098 1 21.5892 43.445 -13.4014 0.000109624 1 
5100 1 24.2398 43.472 -12.3126 0.000179072 1 
5160 1 25.1197 41.7676 -14.4488 8.90911e-05 1 
5162 1 26.4465 44.257 -13.958 0.000129188 1 
5163 1 27.7694 41.7953 -13.3656 0.000171162 1 
5164 1 26.8901 43.4982 -11.2244 0.000387208 1 
5165 1 29.0962 44.2841 -12.8741 0.000338473 1 
5166 1 29.5388 43.5252 -10.1385 0.00220797 1 
5237 1 31.3037 40.1159 -14.419 0.000102361 1 
5238 1 30.4195 41.8236 -12.2863 0.000426898 1 
5239 1 32.6315 42.6073 -13.9315 9.12679e-05 1 
5240 1 31.7481 44.3114 -11.7983 0.000403052 1 
5241 1 33.0745 41.85 -11.2123 0.00040006 1 
5242 1 32.192 43.5535 -9.07833 0.00421845 1 
5243 1 34.4062 44.3378 -10.7192 0.000251252 1 
5244 1 34.86 43.5784 -7.99851 0.00302163 1 
5324 1 33.9572 40.1425 -13.3408 0.00011936 1 
5325 1 36.1683 40.9273 -14.9785 5.15792e-05 1 
5326 1 35.2866 42.6338 -12.8502 9.04106e-05 1 
5327 1 36.6115 40.1695 -12.2581 0.000149513 1 
5328 1 35.7331 41.8765 -10.1288 0.000382823 1 
5680 1 37.4961 43.4184 -14.4892 5.25017e-05 1 
5690 1 3.02974 43.445 -13.4014 0.000109624 1 
5692 1 5.68035 43.472 -12.3126 0.000179072 1 
5710 1 6.56031 41.7676 -14.4488 8.90911e-05 1 
5712 1 7.88704 44.257 -13.958 0.000129188 1 
5713 1 9.20998 41.7953 -13.3656 0.000171162 1 
5714 1 8.33068 43.4982 -11.2244 0.000387208 1 
5715 1 10.5367 44.2841 -12.8741 0.000338473 1 
5716 1 10.9794 43.5252 -10.1385 0.00220797 1 
5745 1 12.7443 40.1159 -14.419 0.000102361 1 
5746 1 11.86 41.8236 -12.2863 0.000426898 1 
5747 1 14.0721 42.6073 -13.9315 9.12679e-05 1 
5748 1 13.1887 44.3114 -11.7983 0.000403052 1 
5749 1 14.515 41.85 -11.2123 0.00040006 1 
5750 1 13.6326 43.5535 -9.07833 0.00421845 1 
5751 1 15.8467 44.3378 -10.7192 0.000251252 1 
5752 1 16.3006 43.5784 -7.99851 0.00302163 1 
5790 1 15.3977 40.1425 -13.3408 0.00011936 1 
5791 1 17.6089 40.9273 -14.9785 5.15792e-05 1 
5792 1 16.7272 42.6338 -12.8502 9.04106e-05 1 
5793 1 18.052 40.1695 -12.2581 0.000149513 1 
5794 1 17.1737 41.8765 -10.1288 0.000382823 1 
5795 1 19.382 42.6609 -11.763 0.000146663 1 
5796 1 18.5054 44.3655 -9.62953 0.000458386 1 
5797 1 19.8276 41.9051 -9.0364 0.000392556 1 
5798 1 18.9534 43.6095 -6.90056 0.00244402 1 
5799 1 21.1622 44.3888 -8.52726 0.00089918 1 
5800 1 21.6221 43.627 -5.78352 0.00512533 1 
5846 1 18.934 38.4604 -14.3834 9.86936e-05 1 
5848 1 20.2612 40.9545 -13.894 8.05843e-05 1 
5849 1 21.5843 38.4881 -13.2997 0.000154779 1 
5850 1 20.7035 40.1976 -11.1707 0.000209177 1 
5851 1 22.9116 40.9825 -12.8077 0.000167324 1 
5852 1 22.0343 42.6877 -10.6696 0.000372046 1 
5853 1 23.3521 40.2262 -10.0828 0.000601922 1 
5854 1 22.4811 41.9297 -7.9337 0.00226338 1 
5855 1 24.6848 42.7145 -9.57967 0.000505778 1 
5856 1 23.8167 44.4117 -7.4257 0.00193065 1 
5857 1 25.1315 41.9561 -6.85144 0.00448316 1 
5858 1 24.2802 43.6474 -4.67638 0.012062 1 
5859 1 26.4769 44.4289 -6.32687 0.00475658 1 
5860 1 26.9446 43.6315 -3.57817 0.0496714 1 
5916 1 23.7932 39.2745 -14.9383 9.13534e-05 1 
5917 1 25.1167 36.8061 -14.3428 0.000147241 1 
5918 1 24.2326 38.5166 -12.2178 0.000341321 1 
5919 1 26.4427 39.3026 -13.8569 0.000148323 1 
5920 1 25.5609 41.0104 -11.7228 0.000240334 1 
5921 1 26.8817 38.5452 -11.1386 0.000443123 1 
5922 1 26.0019 40.2533 -8.99958 0.000604565 1 
5923 1 28.21 41.0385 -10.6397 0.000619797 1 
5924 1 27.3379 42.7385 -8.48643 0.00143695 1 
5925 1 28.6514 40.2809 -7.91463 0.00307327 1 
5926 1 27.7914 41.972 -5.74383 0.00855964 1 
5927 1 29.9839 42.7656 -7.38777 0.0225524 1 
5928 1 29.12 44.4631 -5.21241 0.080612 1 
5929 1 30.4257 41.9971 -4.62533 0.611151 5 
5930 1 29.5781 43.6369 -2.39945 3.97508 5 
5931 1 31.7981 44.4262 -4.27916 0.267951 1 
5932 1 32.2686 43.6522 -1.554 7.92983 5 
5998 1 27.766 36.834 -13.2654 0.000294653 1 
5999 1 29.9774 37.6211 -14.9047 0.000131047 1 
6000 1 29.0923 39.3309 -12.7771 0.000189568 1 
6001 1 30.416 36.8629 -12.1899 0.000571023 1 
6002 1 29.5305 38.5745 -10.058 0.000808688 1 
6003 1 31.7432 39.3594 -11.7018 0.000347355 1 
6004 1 30.8584 41.0697 -9.56535 0.00305509 1 
6005 1 32.1793 38.6044 -8.99297 0.00223407 1 
6006 1 31.297 40.3143 -6.85685 0.0172093 1 
6007 1 33.5204 41.0911 -8.5028 0.00298485 1 
6008 1 32.6492 42.7838 -6.38256 0.0459393 1 
6009 1 33.9614 40.332 -5.79926 0.0239032 1 
6010 1 33.0631 42.0021 -3.65425 0.838995 5 
6011 1 35.2898 42.8259 -5.25298 0.0202309 1 
6012 1 34.415 44.5453 -3.1313 0.740807 5 
6013 1 35.7255 42.0608 -2.53556 0.217756 1 
6014 1 34.9915 43.9177 -0.492433 6.69776 5 
6088 1 31.3031 35.1508 -14.3078 0.000146304 1 
6090 1 32.6292 37.6482 -13.8274 0.000180401 1 
6091 1 33.9554 35.1771 -13.2308 0.000220338 1 
6092 1 33.0686 36.8904 -11.1167 0.000703539 1 
6093 1 35.2827 37.6746 -12.7489 0.000239787 1 
6094 1 34.3993 39.3849 -10.6265 0.000430935 1 
6095 1 35.723 36.9169 -10.0371 0.000863296 1 
6096 1 34.8397 38.6287 -7.91605 0.00253358 1 
6097 1 36.1769 41.1236 -7.40121 0.00253333 1 
6098 1 36.6159 40.3661 -4.66837 0.0252956 1 
6177 1 36.167 35.9642 -14.8671 9.59387e-05 1 
6178 1 36.6078 35.2032 -12.1502 0.000268391 1 
6410 1 37.9414 42.6609 -11.763 0.000146663 1 
6411 1 37.0648 44.3655 -9.62953 0.000458386 1 
6412 1 38.387 41.9051 -9.0364 0.000392556 1 
6413 1 37.5128 43.6095 -6.90056 0.00244402 1 
6414 1 39.7216 44.3888 -8.52726 0.00089918 1 
6415 1 3.06271 43.627 -5.78352 0.00512533 1 
6419 1 37.4934 38.4604 -14.3834 9.86936e-05 1 
6421 1 38.8207 40.9545 -13.894 8.05843e-05 1 
6422 1 3.02483 38.4881 -13.2997 0.000154779 1 
6423 1 39.263 40.1976 -11.1707 0.000209177 1 
6424 1 4.35215 40.9825 -12.8077 0.000167324 1 
6425 1 3.47487 42.6877 -10.6696 0.000372046 1 
6426 1 4.79271 40.2262 -10.0828 0.000601922 1 
6427 1 3.92164 41.9297 -7.9337 0.00226338 1 
6428 1 6.12538 42.7145 -9.57967 0.000505778 1 
6429 1 5.25728 44.4117 -7.4257 0.00193065 1 
6430 1 6.57206 41.9561 -6.85144 0.00448316 1 
6431 1 5.72074 43.6474 -4.67638 0.012062 1 
6432 1 7.91747 44.4289 -6.32687 0.00475658 1 
6433 1 8.38513 43.6315 -3.57817 0.0496714 1 
6447 1 5.23378 39.2745 -14.9383 9.13534e-05 1 
6448 1 6.55731 36.8061 -14.3428 0.000147241 1 
6449 1 5.67319 38.5166 -12.2178 0.000341321 1 
6450 1 7.88324 39.3026 -13.8569 0.000148323 1 
6451 1 7.00151 41.0104 -11.7228 0.000240334 1 
6452 1 8.32227 38.5452 -11.1386 0.000443123 1 
6453 1 7.44242 40.2533 -8.99958 0.000604565 1 
6454 1 9.65061 41.0385 -10.6397 0.000619797 1 
6455 1 8.77851 42.7385 -8.48643 0.00143695 1 
6456 1 10.092 40.2809 -7.91463 0.00307327 1 
6457 1 9.23192 41.972 -5.74383 0.00855964 1 
6458 1 11.4244 42.7656 -7.38777 0.0225524 1 
6459 1 10.5606 44.4631 -5.21241 0.080612 1 
6460 1 11.8663 41.9971 -4.62533 0.611151 5 
6461 1 11.0187 43.6369 -2.39945 3.97508 5 
6462 1 13.2386 44.4262 -4.27916 0.267951 1 
6463 1 13.7092 43.6522 -1.554 7.92983 5 
6487 1 9.2066 36.834 -13.2654 0.000294653 1 
6488 1 11.418 37.6211 -14.9047 0.000131047 1 
6489 1 10.5329 39.3309 -12.7771 0.000189568 1 
6490 1 11.8566 36.8629 -12.1899 0.000571023 1 
6491 1 10.9711 38.5745 -10.058 0.000808688 1 
6492 1 13.1837 39.3594 -11.7018 0.000347355 1 
6493 1 12.299 41.0697 -9.56535 0.00305509 1 
6494 1 13.6198 38.6044 -8.99297 0.00223407 1 
6495 1 12.7376 40.3143 -6.85685 0.0172093 1 
6496 1 14.9609 41.0911 -8.5028 0.00298485 1 
6497 1 14.0898 42.7838 -6.38256 0.0459393 1 
6498 1 15.4019 40.332 -5.79926 0.0239032 1 
6499 1 14.5037 42.0021 -3.65425 0.838995 5 
6500 1 16.7304 42.8259 -5.25298 0.0202309 1 
6501 1 15.8556 44.5453 -3.1313 0.740807 5 
6502 1 17.1661 42.0608 -2.53556 0.217756 1 
6503 1 16.4321 43.9177 -0.492433 6.69776 5 
6504 1 18.5606 44.5892 -2.08156 0.354277 1 
6536 1 12.7437 35.1508 -14.3078 0.000146304 1 
6538 1 14.0698 37.6482 -13.8274 0.000180401 1 
6539 1 15.3959 35.1771 -13.2308 0.000220338 1 
6540 1 14.5092 36.8904 -11.1167 0.000703539 1 
6541 1 16.7233 37.6746 -12.7489 0.000239787 1 
6542 1 15.8398 39.3849 -10.6265 0.000430935 1 
6543 1 17.1636 36.9169 -10.0371 0.000863296 1 
6544 1 16.2803 38.6287 -7.91605 0.00253358 1 
6545 1 18.4935 39.4142 -9.53819 0.000491108 1 
6546 1 17.6174 41.1236 -7.40121 0.00253333 1 
6547 1 18.9258 38.6609 -6.81733 0.00260117 1 
6548 1 18.0564 40.3661 -4.66837 0.0252956 1 
6549 1 20.2721 41.1486 -6.31623 0.00585073 1 
6550 1 19.4018 42.858 -4.1917 0.0368509 1 
6551 1 20.7267 40.3779 -3.62759 0.12406 1 
6552 1 19.8442 42.0111 -1.55486 0.917718 1 
6553 1 22.0876 42.8592 -3.03406 0.151414 1 
6595 1 17.6076 35.9642 -14.8671 9.59387e-05 1 
6596 1 18.9337 33.4935 -14.2634 9.01292e-05 1 
6597 1 18.0484 35.2032 -12.1502 0.000268391 1 
6598 1 20.2586 35.9908 -13.7847 0.000119833 1 
6599 1 19.3749 37.7021 -11.6649 0.000311217 1 
6600 1 20.6974 35.2299 -11.0657 0.000312287 1 
6601 1 19.8112 36.9456 -8.94912 0.00117771 1 
6602 1 22.0226 37.7298 -10.5805 0.000545187 1 
6603 1 21.143 39.4407 -8.44867 0.000655928 1 
6604 1 22.4542 36.97 -7.8644 0.00307707 1 
6605 1 21.5774 38.6771 -5.73039 0.00860461 1 
6606 1 23.7887 39.4702 -7.35906 0.00366998 1 
6607 1 22.933 41.1647 -5.18656 0.0318276 1 
6608 1 24.208 38.718 -4.62465 0.064529 1 
6609 1 23.3702 40.4172 -2.36074 5.02919 5 
6610 1 25.5771 41.2016 -4.14971 0.172762 1 
6611 1 24.7027 42.8809 -1.87343 4.70122 5 
6612 1 26.0381 40.2474 -1.62077 7.66591 5 
6613 1 27.392 42.7969 -0.800647 7.67615 5 
6665 1 21.5838 33.5192 -13.1801 0.000112246 1 
6666 1 23.7926 34.3083 -14.8212 7.2677e-05 1 
6667 1 22.907 36.0178 -12.7028 0.000212939 1 
6668 1 24.2316 33.5446 -12.099 0.000247511 1 
6669 1 23.3424 35.2558 -9.98465 0.000779383 1 
6670 1 25.5541 36.0458 -11.6267 0.000624007 1 
6671 1 24.6684 37.7599 -9.50388 0.00201745 1 
6672 1 25.9877 35.2844 -8.92199 0.0040949 1 
6673 1 25.0947 37.0076 -6.81119 0.02541 1 
6674 1 27.3212 37.787 -8.42756 0.00209322 1 
6675 1 26.4416 39.4904 -6.28565 0.00986306 1 
6676 1 27.7669 37.0169 -5.7263 0.0263425 1 
6677 1 26.8903 38.6612 -3.61428 0.203887 1 
6678 1 29.0921 39.5217 -5.18776 0.0446272 1 
6679 1 28.2715 41.1875 -2.9823 1.79468 5 
6680 1 29.4736 38.7551 -2.36726 2.547 5 
6681 1 30.5252 41.2367 -1.23928 12.5559 5 
6741 1 25.1185 31.8376 -14.2141 9.61767e-05 1 
6743 1 26.4415 34.3348 -13.7432 0.000164709 1 
6744 1 27.7678 31.8627 -13.1363 0.000180146 1 
6745 1 26.8794 33.5702 -11.027 0.000715868 1 
6746 1 29.0914 34.3615 -12.6678 0.000291529 1 
6747 1 28.2032 36.0743 -10.5547 0.00136808 1 
6748 1 29.5292 33.597 -9.9549 0.00113046 1 
6749 1 28.6395 35.314 -7.85637 0.00878324 1 
6750 1 30.8509 36.1079 -9.48409 0.00395903 1 
6751 1 29.9661 37.8175 -7.33126 0.0147891 1 
6752 1 31.2799 35.364 -6.79582 0.0334622 1 
6753 1 30.3835 37.079 -4.56887 0.539228 5 
6754 1 32.6056 37.8674 -6.29472 0.0282545 1 
6755 1 31.6901 39.5833 -4.12314 0.650471 5 
6756 1 33.0034 37.1082 -3.64136 0.835775 5 
6757 1 32.1374 38.8114 -1.54295 6.68794 5 
6758 1 34.3852 39.5922 -3.10551 0.0863711 1 
6759 1 33.411 41.2266 -0.965075 4.16542 5 
6760 1 34.8462 38.9497 -0.402452 5.18873 5 
6830 1 29.9783 32.6532 -14.7812 7.85688e-05 1 
6831 1 31.3048 30.184 -14.1729 9.85798e-05 1 
6832 1 30.418 31.888 -12.0585 0.000337492 1 
6833 1 32.6294 32.6792 -13.7041 0.000157994 1 
6834 1 31.7416 34.3898 -11.5942 0.000520526 1 
6835 1 33.0677 31.9158 -10.9864 0.000875511 1 
6836 1 32.1753 33.6308 -8.88764 0.00296367 1 
6837 1 34.3943 34.4164 -10.5196 0.000775012 1 
6838 1 33.5049 36.1376 -8.41736 0.00428281 1 
6839 1 34.8293 33.654 -7.8158 0.00471516 1 
6840 1 33.938 35.383 -5.74736 0.0417121 1 
6841 1 36.1578 36.1632 -7.32763 0.00465641 1 
6842 1 35.2607 37.8737 -5.19874 0.0114003 1 
6843 1 36.5683 35.412 -4.60605 0.0327307 1 
6844 1 35.6611 37.1371 -2.46759 0.262211 1 
6914 1 33.957 30.2091 -13.0946 0.000202635 1 
6915 1 36.1682 30.9981 -14.7376 8.07775e-05 1 
6916 1 35.2821 32.7047 -12.6255 0.000211726 1 
6917 1 36.6106 30.2336 -12.0132 0.000219102 1 
6918 1 35.7216 31.9408 -9.90811 0.000677736 1 
7121 1 37.12 44.5892 -2.08156 0.354277 1 
7122 1 37.053 39.4142 -9.53819 0.000491108 1 
7123 1 37.4853 38.6609 -6.81733 0.00260117 1 
7124 1 38.8315 41.1486 -6.31623 0.00585073 1 
7125 1 37.9612 42.858 -4.1917 0.0368509 1 
7126 1 39.2861 40.3779 -3.62759 0.12406 1 
7127 1 38.4036 42.0111 -1.55486 0.917718 1 
7128 1 3.5282 42.8592 -3.03406 0.151414 1 
7130 1 37.4931 33.4935 -14.2634 9.01292e-05 1 
7131 1 38.818 35.9908 -13.7847 0.000119833 1 
7132 1 37.9343 37.7021 -11.6649 0.000311217 1 
7133 1 2.13794 35.2299 -11.0657 0.000312287 1 
7134 1 38.3706 36.9456 -8.94912 0.00117771 1 
7135 1 3.4632 37.7298 -10.5805 0.000545187 1 
7136 1 2.58356 39.4407 -8.44867 0.000655928 1 
7137 1 3.89472 36.97 -7.8644 0.00307707 1 
7138 1 3.01797 38.6771 -5.73039 0.00860461 1 
7139 1 5.22923 39.4702 -7.35906 0.00366998 1 
7140 1 4.37355 41.1647 -5.18656 0.0318276 1 
7141 1 5.64861 38.718 -4.62465 0.064529 1 
7142 1 4.81075 40.4172 -2.36074 5.02919 5 
7143 1 7.01762 41.2016 -4.14971 0.172762 1 
7144 1 6.14332 42.8809 -1.87343 4.70122 5 
7145 1 7.47869 40.2474 -1.62077 7.66591 5 
7146 1 8.83255 42.7969 -0.800647 7.67615 5 
7156 1 3.02434 33.5192 -13.1801 0.000112246 1 
7157 1 5.23315 34.3083 -14.8212 7.2677e-05 1 
7158 1 4.34754 36.0178 -12.7028 0.000212939 1 
7159 1 5.67213 33.5446 -12.099 0.000247511 1 
7160 1 4.78301 35.2558 -9.98465 0.000779383 1 
7161 1 6.99468 36.0458 -11.6267 0.000624007 1 
7162 1 6.10895 37.7599 -9.50388 0.00201745 1 
7163 1 7.4283 35.2844 -8.92199 0.0040949 1 
7164 1 6.53526 37.0076 -6.81119 0.02541 1 
7165 1 8.76175 37.787 -8.42756 0.00209322 1 
7166 1 7.88213 39.4904 -6.28565 0.00986306 1 
7167 1 9.2075 37.0169 -5.7263 0.0263425 1 
7168 1 8.33083 38.6612 -3.61428 0.203887 1 
7169 1 10.5326 39.5217 -5.18776 0.0446272 1 
7170 1 9.71206 41.1875 -2.9823 1.79468 5 
7171 1 10.9142 38.7551 -2.36726 2.547 5 
7172 1 11.9658 41.2367 -1.23928 12.5559 5 
7190 1 6.55908 31.8376 -14.2141 9.61767e-05 1 
7192 1 7.88206 34.3348 -13.7432 0.000164709 1 
7193 1 9.20841 31.8627 -13.1363 0.000180146 1 
7194 1 8.31992 33.5702 -11.027 0.000715868 1 
7195 1 10.5319 34.3615 -12.6678 0.000291529 1 
7196 1 9.64374 36.0743 -10.5547 0.00136808 1 
7197 1 10.9698 33.597 -9.9549 0.00113046 1 
7198 1 10.0801 35.314 -7.85637 0.00878324 1 
7199 1 12.2915 36.1079 -9.48409 0.00395903 1 
7200 1 11.4066 37.8175 -7.33126 0.0147891 1 
7201 1 12.7204 35.364 -6.79582 0.0334622 1 
7202 1 11.824 37.079 -4.56887 0.539228 5 
7203 1 14.0462 37.8674 -6.29472 0.0282545 1 
7204 1 13.1307 39.5833 -4.12314 0.650471 5 
7205 1 14.4439 37.1082 -3.64136 0.835775 5 
7206 1 13.5779 38.8114 -1.54295 6.68794 5 
7207 1 15.8258 39.5922 -3.10551 0.0863711 1 
7208 1 14.8515 41.2266 -0.965075 4.16542 5 
7209 1 16.2867 38.9497 -0.402452 5.18873 5 
7237 1 11.4188 32.6532 -14.7812 7.85688e-05 1 
7238 1 12.7454 30.184 -14.1729 9.85798e-05 1 
7239 1 11.8586 31.888 -12.0585 0.000337492 1 
7240 1 14.07 32.6792 -13.7041 0.000157994 1 
7241 1 13.1821 34.3898 -11.5942 0.000520526 1 
7242 1 14.5083 31.9158 -10.9864 0.000875511 1 
7243 1 13.6158 33.6308 -8.88764 0.00296367 1 
7244 1 15.8349 34.4164 -10.5196 0.000775012 1 
7245 1 14.9455 36.1376 -8.41736 0.00428281 1 
7246 1 16.2698 33.654 -7.8158 0.00471516 1 
7247 1 15.3786 35.383 -5.74736 0.0417121 1 
7248 1 17.5983 36.1632 -7.32763 0.00465641 1 
7249 1 16.7012 37.8737 -5.19874 0.0114003 1 
7250 1 18.0089 35.412 -4.60605 0.0327307 1 
7251 1 17.1017 37.1371 -2.46759 0.262211 1 
7252 1 19.3344 37.9149 -4.09153 0.0323077 1 
7253 1 18.4848 39.6342 -1.89199 5.70008 5 
7254 1 19.6443 37.1714 -1.33003 5.0447 5 
7255 1 21.1368 39.5829 -0.951242 7.28147 5 
7293 1 15.3976 30.2091 -13.0946 0.000202635 1 
7294 1 17.6088 30.9981 -14.7376 8.07775e-05 1 
7295 1 16.7226 32.7047 -12.6255 0.000211726 1 
7296 1 18.0511 30.2336 -12.0132 0.000219102 1 
7297 1 17.1622 31.9408 -9.90811 0.000677736 1 
7298 1 19.3742 32.7303 -11.5425 0.000211398 1 
7299 1 18.4859 34.4431 -9.43523 0.000732694 1 
7300 1 19.811 31.9685 -8.82109 0.000538298 1 
7301 1 18.9122 33.6875 -6.71867 0.00267672 1 
7302 1 21.1306 34.4689 -8.34805 0.000753183 1 
7303 1 20.2327 36.1927 -6.24008 0.00768307 1 
7304 1 21.5571 33.7082 -5.63668 0.00973027 1 
7305 1 20.6272 35.4581 -3.56562 0.155179 1 
7306 1 22.8734 36.2043 -5.14465 0.0433831 1 
7307 1 21.9713 37.8941 -3.00528 0.10675 1 
7308 1 23.2578 35.45 -2.36114 4.59532 5 
7309 1 22.1818 37.1891 -0.176498 5.28085 5 
7310 1 24.5764 37.8926 -1.90996 4.5641 5 
7356 1 18.9367 28.5303 -14.1267 0.000152352 1 
7358 1 20.2607 31.0231 -13.654 9.59658e-05 1 
7359 1 21.5885 28.5546 -13.0402 0.000198776 1 
7360 1 20.7027 30.2584 -10.9273 0.000244958 1 
7361 1 22.9108 31.0474 -12.569 0.000159882 1 
7362 1 22.0226 32.7551 -10.4572 0.000295123 1 
7363 1 23.3525 30.2801 -9.83917 0.000574807 1 
7364 1 22.4573 31.9891 -7.73436 0.00103978 1 
7365 1 24.668 32.7781 -9.37648 0.00125776 1 
7366 1 23.7723 34.4912 -7.26651 0.00679843 1 
7367 1 25.0982 32.0111 -6.64783 0.0121289 1 
7368 1 24.2026 33.7457 -4.5244 0.144837 1 
7369 1 26.4227 34.5153 -6.24775 0.0449131 1 
7370 1 25.5183 36.2554 -4.19093 0.395764 1 
7371 1 26.8728 33.6913 -3.63288 0.479652 1 
7372 1 25.9103 35.2845 -1.7348 8.92308 5 
7373 1 28.2164 36.243 -2.98959 2.13199 5 
7374 1 27.231 37.7712 -0.886599 5.11888 5 
7430 1 23.7955 29.344 -14.686 0.000122135 1 
7431 1 25.1213 26.8787 -14.0761 0.000208527 1 
7432 1 24.2387 28.5778 -11.9515 0.000513099 1 
7433 1 26.4447 29.3688 -13.603 0.000183564 1 
7434 1 25.5588 31.071 -11.4859 0.000408124 1 
7435 1 26.886 28.602 -10.8675 0.0007101 1 
7436 1 25.9986 30.3009 -8.75121 0.0023967 1 
7437 1 28.2076 31.0945 -10.4128 0.000954332 1 
7438 1 27.3163 32.7997 -8.31929 0.00510144 1 
7439 1 28.6483 30.3221 -7.68775 0.00713608 1 
7440 1 27.754 32.0124 -5.62289 0.0482103 1 
7441 1 29.9628 32.831 -7.24009 0.00979027 1 
7442 1 29.0743 34.5606 -5.16805 0.0784836 1 
7443 1 30.3606 32.0785 -4.49127 0.126124 1 
7444 1 29.4335 33.8269 -2.43832 2.85994 5 
7445 1 31.6669 34.6489 -4.11837 0.780728 5 
7446 1 30.4746 36.3321 -1.26123 12.9021 5 
7447 1 32.0667 33.9085 -1.5635 5.74539 5 
7448 1 33.3667 36.3237 -1.05509 5.15384 5 
7511 1 27.7706 26.9043 -12.9938 0.000229038 1 
7512 1 29.9801 27.6929 -14.6452 0.000108212 1 
7513 1 29.0946 29.3935 -12.5241 0.000263184 1 
7514 1 30.4226 26.9298 -11.9136 0.000340571 1 
7515 1 29.5362 28.6269 -9.79187 0.000973979 1 
7516 1 31.7454 29.4194 -11.4443 0.000368491 1 
7517 1 30.8559 31.1208 -9.32956 0.00354457 1 
7518 1 32.1855 28.6576 -8.70869 0.00332012 1 
7519 1 31.2909 30.3587 -6.57411 0.0547681 1 
7520 1 33.5007 31.1557 -8.27582 0.00980089 1 
7521 1 32.5896 32.8873 -6.19182 0.0272825 1 
7522 1 33.9346 30.3953 -5.60091 0.139878 1 
7523 1 32.9849 32.1298 -3.56087 0.4081 1 
7524 1 35.2488 32.8951 -5.10974 0.0227317 1 
7525 1 34.3359 34.6418 -3.09048 0.154945 1 
7526 1 35.6154 32.1728 -2.37499 0.51341 1 
7527 1 34.6948 34.048 -0.410201 5.46936 5 
7587 1 31.3069 25.2301 -14.0418 8.75448e-05 1 
7589 1 32.6326 27.7181 -13.5637 0.000186499 1 
7590 1 33.9613 25.2556 -12.9587 0.000142486 1 
7591 1 33.0762 26.9557 -10.8309 0.000854948 1 
7592 1 35.2868 27.742 -12.4817 0.00038918 1 
7593 1 34.3981 29.4446 -10.3715 0.00113832 1 
7594 1 35.7331 26.9768 -9.74883 0.00211223 1 
7595 1 34.8404 28.6778 -7.65453 0.0110024 1 
7596 1 36.1595 31.1787 -7.18824 0.00471231 1 
7597 1 36.5899 30.4275 -4.44362 0.100493 1 
7654 1 36.1708 26.0414 -14.6039 0.000107182 1 
7655 1 36.6171 25.2794 -11.8715 0.00032529 1 
7769 1 37.8938 37.9149 -4.09153 0.0323077 1 
7770 1 37.0442 39.6342 -1.89199 5.70008 5 
7771 1 38.2038 37.1714 -1.33003 5.0447 5 
7772 1 2.57736 39.5829 -0.951242 7.28147 5 
7773 1 37.9336 32.7303 -11.5425 0.000211398 1 
7774 1 37.0453 34.4431 -9.43523 0.000732694 1 
7775 1 38.3704 31.9685 -8.82109 0.000538298 1 
7776 1 37.4716 33.6875 -6.71867 0.00267672 1 
7777 1 2.57121 34.4689 -8.34805 0.000753183 1 
7778 1 38.7922 36.1927 -6.24008 0.00768307 1 
7779 1 2.99769 33.7082 -5.63668 0.00973027 1 
7780 1 39.1866 35.4581 -3.56562 0.155179 1 
7781 1 4.31393 36.2043 -5.14465 0.0433831 1 
7782 1 3.41186 37.8941 -3.00528 0.10675 1 
7783 1 4.69836 35.45 -2.36114 4.59532 5 
7784 1 3.6224 37.1891 -0.176498 5.28085 5 
7785 1 6.01694 37.8926 -1.90996 4.5641 5 
7789 1 37.4961 28.5303 -14.1267 0.000152352 1 
7791 1 38.8201 31.0231 -13.654 9.59658e-05 1 
7792 1 3.0291 28.5546 -13.0402 0.000198776 1 
7793 1 2.14329 30.2584 -10.9273 0.000244958 1 
7794 1 4.35135 31.0474 -12.569 0.000159882 1 
7795 1 3.46313 32.7551 -10.4572 0.000295123 1 
7796 1 4.79303 30.2801 -9.83917 0.000574807 1 
7797 1 3.89791 31.9891 -7.73436 0.00103978 1 
7798 1 6.10854 32.7781 -9.37648 0.00125776 1 
7799 1 5.21285 34.4912 -7.26651 0.00679843 1 
7800 1 6.53875 32.0111 -6.64783 0.0121289 1 
7801 1 5.64313 33.7457 -4.5244 0.144837 1 
7802 1 7.86323 34.5153 -6.24775 0.0449131 1 
7803 1 6.95888 36.2554 -4.19093 0.395764 1 
7804 1 8.31339 33.6913 -3.63288 0.479652 1 
7805 1 7.35088 35.2845 -1.7348 8.92308 5 
7806 1 9.65695 36.243 -2.98959 2.13199 5 
7807 1 8.67157 37.7712 -0.886599 5.11888 5 
7821 1 5.23606 29.344 -14.686 0.000122135 1 
7822 1 6.56191 26.8787 -14.0761 0.000208527 1 
7823 1 5.67923 28.5778 -11.9515 0.000513099 1 
7824 1 7.88523 29.3688 -13.603 0.000183564 1 
7825 1 6.99937 31.071 -11.4859 0.000408124 1 
7826 1 8.32658 28.602 -10.8675 0.0007101 1 
7827 1 7.43919 30.3009 -8.75121 0.0023967 1 
7828 1 9.6482 31.0945 -10.4128 0.000954332 1 
7829 1 8.75686 32.7997 -8.31929 0.00510144 1 
7830 1 10.0888 30.3221 -7.68775 0.00713608 1 
7831 1 9.19459 32.0124 -5.62289 0.0482103 1 
7832 1 11.4033 32.831 -7.24009 0.00979027 1 
7833 1 10.5149 34.5606 -5.16805 0.0784836 1 
7834 1 11.8012 32.0785 -4.49127 0.126124 1 
7835 1 10.8741 33.8269 -2.43832 2.85994 5 
7836 1 13.1075 34.6489 -4.11837 0.780728 5 
7837 1 11.9151 36.3321 -1.26123 12.9021 5 
7838 1 13.5073 33.9085 -1.5635 5.74539 5 
7839 1 14.8073 36.3237 -1.05509 5.15384 5 
7863 1 9.21121 26.9043 -12.9938 0.000229038 1 
7864 1 11.4207 27.6929 -14.6452 0.000108212 1 
7865 1 10.5352 29.3935 -12.5241 0.000263184 1 
7866 1 11.8632 26.9298 -11.9136 0.000340571 1 
7867 1 10.9768 28.6269 -9.79187 0.000973979 1 
7868 1 13.1859 29.4194 -11.4443 0.000368491 1 
7869 1 12.2965 31.1208 -9.32956 0.00354457 1 
7870 1 13.6261 28.6576 -8.70869 0.00332012 1 
7871 1 12.7315 30.3587 -6.57411 0.0547681 1 
7872 1 14.9413 31.1557 -8.27582 0.00980089 1 
7873 1 14.0301 32.8873 -6.19182 0.0272825 1 
7874 1 15.3752 30.3953 -5.60091 0.139878 1 
7875 1 14.4254 32.1298 -3.56087 0.4081 1 
7876 1 16.6893 32.8951 -5.10974 0.0227317 1 
7877 1 15.7765 34.6418 -3.09048 0.154945 1 
7878 1 17.056 32.1728 -2.37499 0.51341 1 
7879 1 16.1354 34.048 -0.410201 5.46936 5 
7880 1 18.3912 34.6987 -1.8186 5.01932 5 
7912 1 12.7475 25.2301 -14.0418 8.75448e-05 1 
7914 1 14.0732 27.7181 -13.5637 0.000186499 1 
7915 1 15.4019 25.2556 -12.9587 0.000142486 1 
7916 1 14.5168 26.9557 -10.8309 0.000854948 1 
7917 1 16.7273 27.742 -12.4817 0.00038918 1 
7918 1 15.8387 29.4446 -10.3715 0.00113832 1 
7919 1 17.1737 26.9768 -9.74883 0.00211223 1 
7920 1 16.281 28.6778 -7.65453 0.0110024 1 
7921 1 18.4934 29.4692 -9.28768 0.000576055 1 
7922 1 17.6 31.1787 -7.18824 0.00471231 1 
7923 1 18.9299 28.7076 -6.55744 0.00648182 1 
7924 1 18.0305 30.4275 -4.44362 0.100493 1 
7925 1 20.2353 31.2129 -6.09894 0.00428388 1 
7926 1 19.3094 32.95 -3.99745 0.0308742 1 
7927 1 20.6266 30.4493 -3.38713 0.0872077 1 
7928 1 19.6188 32.1958 -1.29588 4.68247 5 
7929 1 21.9461 32.9218 -2.95409 0.104136 1 
7930 1 21.0026 34.5973 -1.00291 7.8888 5 
7931 1 22.2079 32.1512 -0.243553 6.52849 5 
7973 1 17.6114 26.0414 -14.6039 0.000107182 1 
7974 1 18.9384 23.579 -14.0003 0.000101097 1 
7975 1 18.0576 25.2794 -11.8715 0.00032529 1 
7976 1 20.2645 26.0658 -13.516 0.000217625 1 
7977 1 19.3816 27.7654 -11.3942 0.000573672 1 
7978 1 20.7117 25.3028 -10.7771 0.000791457 1 
7979 1 19.8286 26.9997 -8.65304 0.00301841 1 
7980 1 22.0336 27.7886 -10.3045 0.000759802 1 
7981 1 21.1421 29.4944 -8.20065 0.00148638 1 
7982 1 22.4815 27.0186 -7.56386 0.00649353 1 
7983 1 21.5726 28.7311 -5.49124 0.0275718 1 
7984 1 23.7952 29.5101 -7.10723 0.00373808 1 
7985 1 22.8808 31.2219 -5.01301 0.00822902 1 
7986 1 24.2356 28.7397 -4.37525 0.0279401 1 
7987 1 23.2633 30.4439 -2.28741 0.0796068 1 
7988 1 25.5108 31.236 -3.91785 0.0960052 1 
7989 1 24.506 32.8991 -1.80501 5.05681 5 
7990 1 25.7827 30.4755 -1.13172 6.90676 5 
7991 1 27.1826 32.8882 -0.998618 8.8284 5 
8043 1 21.5906 23.6045 -12.9104 0.000201236 1 
8044 1 23.7967 24.3908 -14.5572 0.00011643 1 
8045 1 22.9159 26.0901 -12.4268 0.000277108 1 
8046 1 24.2413 23.6294 -11.8203 0.000311556 1 
8047 1 23.3638 25.3249 -9.68458 0.000821092 1 
8048 1 25.5654 26.1139 -11.3362 0.000862208 1 
8049 1 24.6847 27.8076 -9.20759 0.00273861 1 
8050 1 26.0148 25.3464 -8.58428 0.00470876 1 
8051 1 25.1414 27.0314 -6.4455 0.0193816 1 
8052 1 27.3298 27.8329 -8.12257 0.00298996 1 
8053 1 26.4385 29.5236 -6.00298 0.0169255 1 
8054 1 27.7802 27.0643 -5.36715 0.0288461 1 
8055 1 26.8713 28.7698 -3.23783 6.48107 5 
8056 1 29.0934 29.5505 -4.96252 0.0683793 1 
8057 1 28.1622 31.2112 -2.90593 0.387032 1 
8058 1 29.5078 28.7486 -2.23237 6.29673 5 
8059 1 30.6378 31.3915 -1.59057 3.45891 5 
8111 1 25.1208 21.9295 -13.958 0.000129188 1 
8113 1 26.4463 24.4168 -13.4714 0.000241389 1 
8114 1 27.7705 21.9565 -12.8741 0.000338473 1 
8115 1 26.8904 23.6552 -10.7323 0.000988948 1 
8116 1 29.0966 24.4436 -12.3916 0.000240491 1 
8117 1 28.2136 26.141 -10.2575 0.000837339 1 
8118 1 29.5408 23.6838 -9.66114 0.00119673 1 
8119 1 28.6623 25.3787 -7.52146 0.00517296 1 
8120 1 30.8687 26.1678 -9.17816 0.00133364 1 
8121 1 29.9832 27.8613 -7.05564 0.00475486 1 
8122 1 31.3249 25.4043 -6.43784 0.0114274 1 
8123 1 30.4217 27.0952 -4.31687 0.0845627 1 
8124 1 32.6186 27.9054 -5.95652 0.0446818 1 
8125 1 31.7038 29.6348 -3.73618 1.19201 5 
8126 1 33.0405 27.1824 -3.15209 6.11364 5 
8127 1 34.3904 29.6478 -2.97683 6.77029 5 
8128 1 33.2685 31.2125 -1.04256 6.94232 5 
8129 1 34.4276 28.8161 -0.387097 6.12007 5 
8179 1 29.9801 22.7422 -14.5246 8.75197e-05 1 
8180 1 31.3058 20.2797 -13.9315 9.12679e-05 1 
8181 1 30.4225 21.9838 -11.7983 0.000403052 1 
8182 1 32.6341 22.7685 -13.4437 8.16638e-05 1 
8183 1 31.7511 24.4704 -11.3128 0.000244562 1 
8184 1 33.0805 22.0103 -10.7192 0.000251252 1 
8185 1 32.2001 23.7125 -8.58831 0.00188673 1 
8186 1 34.4084 24.4967 -10.2275 0.000511761 1 
8187 1 33.5217 26.1968 -8.08984 0.00634076 1 
8188 1 34.861 23.7442 -7.49638 0.00390327 1 
8189 1 33.9725 25.4523 -5.33352 0.0602671 1 
8190 1 36.1843 26.2099 -7.00621 0.0145024 1 
8191 1 35.2809 27.9066 -4.94512 0.0986834 1 
8192 1 36.6158 25.4434 -4.22501 0.0825474 1 
8193 1 35.676 27.1666 -2.22138 0.356869 1 
8240 1 34.8426 18.5997 -14.9785 5.15792e-05 1 
8241 1 33.961 20.3062 -12.8502 9.04106e-05 1 
8242 1 36.1704 21.0909 -14.4892 5.25017e-05 1 
8243 1 35.2898 22.7946 -12.3586 0.000136295 1 
8244 1 36.6157 20.3334 -11.763 0.000146663 1 
8245 1 35.7391 22.0379 -9.62953 0.000458386 1 
8334 1 36.9507 34.6987 -1.8186 5.01932 5 
8335 1 37.0528 29.4692 -9.28768 0.000576055 1 
8336 1 37.4893 28.7076 -6.55744 0.00648182 1 
8337 1 38.7947 31.2129 -6.09894 0.00428388 1 
8338 1 37.8688 32.95 -3.99745 0.0308742 1 
8339 1 2.06716 30.4493 -3.38713 0.0872077 1 
8340 1 38.1783 32.1958 -1.29588 4.68247 5 
8341 1 3.38666 32.9218 -2.95409 0.104136 1 
8342 1 2.44315 34.5973 -1.00291 7.8888 5 
8343 1 3.64848 32.1512 -0.243553 6.52849 5 
8345 1 37.4979 23.579 -14.0003 0.000101097 1 
8346 1 1.70507 26.0658 -13.516 0.000217625 1 
8347 1 37.9411 27.7654 -11.3942 0.000573672 1 
8348 1 2.1523 25.3028 -10.7771 0.000791457 1 
8349 1 38.388 26.9997 -8.65304 0.00301841 1 
8350 1 3.47416 27.7886 -10.3045 0.000759802 1 
8351 1 2.58269 29.4944 -8.20065 0.00148638 1 
8352 1 3.92204 27.0186 -7.56386 0.00649353 1 
8353 1 3.01315 28.7311 -5.49124 0.0275718 1 
8354 1 5.23577 29.5101 -7.10723 0.00373808 1 
8355 1 4.32134 31.2219 -5.01301 0.00822902 1 
8356 1 5.67618 28.7397 -4.37525 0.0279401 1 
8357 1 4.70385 30.4439 -2.28741 0.0796068 1 
8358 1 6.95136 31.236 -3.91785 0.0960052 1 
8359 1 5.94654 32.8991 -1.80501 5.05681 5 
8360 1 7.22331 30.4755 -1.13172 6.90676 5 
8361 1 8.62321 32.8882 -0.998618 8.8284 5 
8371 1 3.0312 23.6045 -12.9104 0.000201236 1 
8372 1 5.23722 24.3908 -14.5572 0.00011643 1 
8373 1 4.35643 26.0901 -12.4268 0.000277108 1 
8374 1 5.68188 23.6294 -11.8203 0.000311556 1 
8375 1 4.80433 25.3249 -9.68458 0.000821092 1 
8376 1 7.00594 26.1139 -11.3362 0.000862208 1 
8377 1 6.1253 27.8076 -9.20759 0.00273861 1 
8378 1 7.45537 25.3464 -8.58428 0.00470876 1 
8379 1 6.58196 27.0314 -6.4455 0.0193816 1 
8380 1 8.77033 27.8329 -8.12257 0.00298996 1 
8381 1 7.87907 29.5236 -6.00298 0.0169255 1 
8382 1 9.2208 27.0643 -5.36715 0.0288461 1 
8383 1 8.31191 28.7698 -3.23783 6.48107 5 
8384 1 10.5339 29.5505 -4.96252 0.0683793 1 
8385 1 9.60278 31.2112 -2.90593 0.387032 1 
8386 1 10.9483 28.7486 -2.23237 6.29673 5 
8387 1 12.0784 31.3915 -1.59057 3.45891 5 
8405 1 6.56136 21.9295 -13.958 0.000129188 1 
8407 1 7.88688 24.4168 -13.4714 0.000241389 1 
8408 1 9.21107 21.9565 -12.8741 0.000338473 1 
8409 1 8.33094 23.6552 -10.7323 0.000988948 1 
8410 1 10.5372 24.4436 -12.3916 0.000240491 1 
8411 1 9.65412 26.141 -10.2575 0.000837339 1 
8412 1 10.9814 23.6838 -9.66114 0.00119673 1 
8413 1 10.1029 25.3787 -7.52146 0.00517296 1 
8414 1 12.3093 26.1678 -9.17816 0.00133364 1 
8415 1 11.4238 27.8613 -7.05564 0.00475486 1 
8416 1 12.7655 25.4043 -6.43784 0.0114274 1 
8417 1 11.8623 27.0952 -4.31687 0.0845627 1 
8418 1 14.0592 27.9054 -5.95652 0.0446818 1 
8419 1 13.1444 29.6348 -3.73618 1.19201 5 
8420 1 14.4811 27.1824 -3.15209 6.11364 5 
8421 1 15.831 29.6478 -2.97683 6.77029 5 
8422 1 14.7091 31.2125 -1.04256 6.94232 5 
8423 1 15.8682 28.8161 -0.387097 6.12007 5 
8451 1 11.4206 22.7422 -14.5246 8.75197e-05 1 
8452 1 12.7464 20.2797 -13.9315 9.12679e-05 1 
8453 1 11.863 21.9838 -11.7983 0.000403052 1 
8454 1 14.0747 22.7685 -13.4437 8.16638e-05 1 
8455 1 13.1917 24.4704 -11.3128 0.000244562 1 