ITEM: TIMESTEP
0
ITEM: NUMBER OF ATOMS
8432
ITEM: BOX BOUNDS xy xz yz pp pp ss
-11.117145777 53.115252047 -11.117145777
0 88.95860874500001 0
-85.34332068833028 88.88700294859524 0
ITEM: ATOMS id type x y z c_csym c_cna 
432 1 52.5635 1.1553 -13.041 0.000238866 1 
842 1 52.54 3.2705 -3.95427 0.254501 1 
843 1 52.5622 0.608165 -2.85531 0.649715 5 
844 1 50.7329 1.71693 -0.671924 4.57557 5 
845 1 51.3232 4.15312 -9.30943 0.00458523 1 
846 1 51.943 3.69618 -6.60844 0.0294618 1 
847 1 51.3379 1.46728 -8.28279 0.0055699 1 
848 1 51.9699 1.01325 -5.55871 0.0404622 1 
849 1 49.4803 2.25271 -6.26212 0.0127689 1 
850 1 50.1057 1.80891 -3.51459 0.236068 1 
851 1 47.6643 0.408129 -3.19993 0.453972 1 
855 1 52.5574 3.83265 -14.0644 0.000253975 1 
856 1 50.0812 5.09124 -14.782 0.000180929 1 
857 1 50.7019 4.61968 -12.0395 0.000820562 1 
858 1 50.0865 2.41431 -13.7593 0.000228905 1 
859 1 50.7106 1.93956 -11.0171 0.000958029 1 
860 1 48.2312 3.19767 -11.7299 0.000529903 1 
861 1 48.8548 2.72409 -8.993 0.00211841 1 
862 1 48.2425 0.519261 -10.694 0.000651361 1 
863 1 48.8774 0.0437255 -7.93648 0.00818596 1 
864 1 46.3893 1.30165 -8.6602 0.00247996 1 
865 1 47.0202 0.835469 -5.91715 0.0261897 1 
877 1 47.6101 3.67268 -14.4733 0.000153896 1 
879 1 47.6163 0.995985 -13.4442 0.000122974 1 
880 1 45.1403 2.25464 -14.1567 0.000114668 1 
881 1 45.7623 1.77739 -11.4075 0.000443867 1 
882 1 43.2955 0.361655 -11.08 0.00051246 1 
904 1 42.6723 0.839142 -13.8365 0.000122969 1 
1457 1 -0.56881 8.57858 -5.77376 0.0306377 1 
1458 1 -0.579209 5.93317 -4.85172 0.0560292 1 
1459 1 50.6688 6.7149 -2.85322 5.66782 5 
1460 1 50.6357 4.12341 -1.94242 5.86965 5 
1461 1 51.3106 9.49642 -11.3114 0.000608623 1 
1462 1 51.9289 9.03453 -8.55041 0.00285724 1 
1463 1 51.3151 6.83012 -10.3085 0.00158076 1 
1464 1 51.9309 6.37786 -7.57473 0.00745416 1 
1465 1 49.4515 7.62516 -8.2823 0.00399529 1 
1466 1 50.0681 7.18281 -5.54982 0.0304288 1 
1467 1 49.4592 4.94975 -7.29916 0.0112596 1 
1468 1 50.0673 4.4931 -4.61894 0.0854339 1 
1469 1 47.602 5.74302 -5.28071 0.0273737 1 
1470 1 48.2374 5.31184 -2.53741 5.54196 5 
1471 1 47.6171 3.07131 -4.25757 0.0249316 1 
1472 1 48.2251 2.66773 -1.56372 6.74807 5 
1473 1 45.803 3.8981 -2.22354 0.387302 1 
1474 1 45.8087 1.42801 -0.878771 3.63389 5 
1480 1 50.6925 9.96531 -14.0676 0.000142915 1 
1482 1 50.6962 7.29477 -13.0525 0.000336289 1 
1483 1 48.22 8.55115 -13.7693 0.000203637 1 
1484 1 48.8368 8.08346 -11.0239 0.000799448 1 
1485 1 48.2238 5.87663 -12.7526 0.000444943 1 
1486 1 48.8425 5.40849 -10.0173 0.00206655 1 
1487 1 46.3623 6.66197 -10.7246 0.00110925 1 
1488 1 46.9801 6.19732 -7.99808 0.00562925 1 
1489 1 46.3733 3.98069 -9.70116 0.00129859 1 
1490 1 46.9958 3.51287 -6.97219 0.004666 1 
1491 1 44.5141 4.75831 -7.67061 0.00565286 1 
1492 1 45.1412 4.29144 -4.94677 0.0268066 1 
1493 1 44.5384 2.07541 -6.60181 0.0105294 1 
1494 1 45.1703 1.61821 -3.81152 0.204033 1 
1495 1 42.6852 2.85653 -4.56178 0.0386516 1 
1496 1 43.3161 2.4603 -1.81829 1.03737 5 
1497 1 42.7089 0.183014 -3.51035 0.652434 1 
1498 1 40.9676 1.08089 -0.842959 12.1576 5 
1514 1 45.7471 7.13281 -13.4638 0.000278456 1 
1516 1 45.7533 4.45508 -12.4399 0.000375547 1 
1517 1 43.2775 5.71256 -13.1472 0.000240933 1 
1518 1 43.8947 5.23559 -10.4043 0.00102784 1 
1519 1 43.2855 3.03518 -12.1149 0.000279895 1 
1520 1 43.9083 2.55515 -9.36223 0.00134703 1 
1521 1 41.4309 3.81417 -10.0678 0.000746983 1 
1522 1 42.057 3.33484 -7.31256 0.00390421 1 
1523 1 41.4434 1.14288 -9.02878 0.00264004 1 
1524 1 42.0781 0.657818 -6.27574 0.0206951 1 
1525 1 39.5987 1.91325 -6.94219 0.021933 1 
1526 1 40.2516 1.43865 -4.13433 0.364037 1 
29280 2 11.8869 39.2386 1.5949 6.29405 5 
1551 1 42.6662 3.51339 -14.8673 7.88223e-05 1 
1553 1 40.8116 4.29433 -12.8227 0.000179452 1 
1554 1 40.1999 2.0985 -14.5481 0.000129007 1 
1555 1 40.8197 1.62115 -11.7886 0.000559593 1 
1556 1 38.3485 2.88037 -12.4982 0.000704193 1 
1557 1 38.9681 2.40048 -9.72673 0.00418115 1 
1558 1 38.3582 0.210026 -11.4724 0.000752198 1 
1559 1 36.5099 0.997237 -9.42209 0.00320951 1 
1560 1 37.127 0.526 -6.64656 0.0201428 1 
1596 1 37.7357 0.685207 -14.2349 0.000173023 1 
1597 1 35.265 1.94502 -14.9529 0.00014679 1 
1598 1 35.8876 1.47018 -12.1909 0.000618468 1 
1599 1 33.4229 0.0577231 -11.9004 0.000965128 1 
1642 1 32.799 0.53092 -14.6528 0.000158327 1 
2284 1 -0.585192 13.8659 -7.80252 0.00708133 1 
2285 1 -0.573328 11.2181 -6.77302 0.00557908 1 
2286 1 50.7014 11.9709 -4.67658 0.157072 1 
2287 1 51.3702 11.4468 -1.61895 6.40076 5 
2288 1 50.7123 9.35747 -3.68896 0.307201 1 
2289 1 51.4595 8.52747 -0.967801 10.0417 5 
2290 1 48.879 10.115 -1.76131 3.28512 5 
2291 1 -1.81129 14.8282 -13.3558 0.000338259 1 
2292 1 -1.19735 14.348 -10.5881 0.00173454 1 
2293 1 51.3063 12.1608 -12.3276 0.000440158 1 
2294 1 -1.19228 11.6891 -9.55755 0.00170181 1 
2295 1 49.4509 12.9437 -10.2862 0.00236632 1 
2296 1 50.0749 12.464 -7.50189 0.0188178 1 
2297 1 49.4533 10.2843 -9.2773 0.00246006 1 
2298 1 50.0744 9.81964 -6.5078 0.0138274 1 
2299 1 47.589 11.0634 -7.26296 0.00531561 1 
2300 1 48.203 10.5802 -4.51473 0.0460466 1 
2301 1 47.5861 8.40833 -6.24889 0.022037 1 
2302 1 48.2004 7.9543 -3.4858 6.29717 5 
2303 1 45.6802 9.24973 -4.30923 0.606695 1 
2304 1 46.2347 8.82782 -1.72435 8.26201 5 
2305 1 45.7281 6.55445 -3.32164 0.222256 1 
2306 1 43.889 7.38192 -1.14184 8.6754 5 
2316 1 48.8339 13.4189 -13.0515 0.000313872 1 
2317 1 48.2186 11.2227 -14.7875 8.91152e-05 1 
2318 1 48.8351 10.7515 -12.0341 0.000444795 1 
2319 1 46.3596 12.0074 -12.7553 0.000236231 1 
2320 1 46.9739 11.5363 -10.0079 0.00104022 1 
2321 1 46.3589 9.33634 -11.7388 0.000468422 1 
2322 1 46.9733 8.86906 -8.99801 0.00209251 1 
2323 1 44.4902 10.123 -9.71067 0.00362918 1 
2324 1 45.0927 9.66274 -6.99416 0.0396974 1 
2325 1 44.4935 7.44707 -8.6958 0.00502322 1 
2326 1 45.1134 6.98391 -5.99422 0.040834 1 
2327 1 42.6209 8.24537 -6.63346 0.0269102 1 
2328 1 43.2903 7.83845 -3.89627 0.305986 1 
2329 1 42.6725 5.56388 -5.63353 0.0269018 1 
2330 1 43.2942 5.11586 -2.95131 0.138291 1 
2331 1 40.8553 6.31651 -3.64373 0.209296 1 
2332 1 40.8716 3.60113 -2.43935 0.7036 1 
2350 1 45.7451 9.80733 -14.4844 0.000141838 1 
2352 1 43.8834 10.5912 -12.45 0.000472383 1 
2353 1 43.2728 8.38932 -14.173 0.000172983 1 
2354 1 43.8848 7.91622 -11.4287 0.00071291 1 
2355 1 41.4121 9.17138 -12.1308 0.000252803 1 
2356 1 42.0204 8.70069 -9.38254 0.00149032 1 
2357 1 41.4196 6.49346 -11.1048 0.000472058 1 
2358 1 42.0392 6.01752 -8.36352 0.00476215 1 
2359 1 39.5612 7.26971 -9.06259 0.00319945 1 
2360 1 40.1865 6.78627 -6.34063 0.0397316 1 
2361 1 39.5772 4.58266 -8.01467 0.00462989 1 
2362 1 40.2162 4.09635 -5.25509 0.0181713 1 
2363 1 37.7277 5.35423 -5.95629 0.015319 1 
2364 1 38.3917 4.8357 -3.23186 0.246897 1 
2365 1 37.7516 2.67332 -4.8702 0.0768338 1 
2366 1 38.4632 2.1295 -2.00714 2.3946 5 
2367 1 35.9962 3.3693 -2.69907 5.74618 5 
2368 1 36.1387 0.977632 -0.723579 6.06586 5 
2394 1 40.8015 9.64601 -14.8823 8.33081e-05 1 
2396 1 40.8047 6.9706 -13.8541 0.000114503 1 
2397 1 38.3344 8.22852 -14.5637 8.18399e-05 1 
2398 1 38.9473 7.75078 -11.8082 0.000363232 1 
2399 1 38.3403 5.55353 -13.5322 0.000159238 1 
2400 1 38.9572 5.07202 -10.7731 0.000774007 1 
2401 1 36.4878 6.33362 -11.4811 0.000440665 1 
2402 1 37.1035 5.84573 -8.71605 0.00267595 1 
2403 1 36.498 3.66183 -10.4421 0.0029539 1 
2404 1 37.1141 3.17861 -7.65403 0.0177805 1 
2405 1 34.6476 4.43844 -8.37113 0.0170652 1 
2406 1 35.2439 3.92309 -5.54933 0.148613 1 
2407 1 34.6559 1.78728 -7.36809 0.0178419 1 
2408 1 35.261 1.31303 -4.55181 9.31744 5 
2409 1 32.7684 2.5687 -5.32694 5.91145 5 
2410 1 33.7875 0.131734 -1.86549 11.5686 5 
2411 1 31.1553 0.238087 -0.464301 5.96116 5 
2449 1 35.8709 6.81312 -14.2452 0.000131211 1 
2451 1 35.8786 4.14084 -13.2139 0.000551197 1 
2452 1 33.4088 5.40077 -13.9334 0.00044456 1 
2453 1 34.03 4.92331 -11.1614 0.00253193 1 
2454 1 33.4163 2.73057 -12.9127 0.000452899 1 
2455 1 34.0404 2.25755 -10.1478 0.002652 1 
2456 1 31.5676 3.51724 -10.8762 0.00128552 1 
2457 1 32.191 3.04064 -8.11408 0.0103569 1 
2458 1 31.5734 0.84381 -9.87607 0.00400244 1 
2459 1 32.1918 0.3731 -7.14299 0.0416156 1 
2460 1 29.7292 1.62347 -7.85456 0.016442 1 
2461 1 30.3666 1.16174 -5.08139 5.35188 5 
2509 1 30.944 3.98964 -13.6366 0.00025547 1 
2511 1 30.9498 1.31631 -12.6217 0.000561749 1 
2512 1 28.4757 2.5743 -13.3434 0.000362203 1 
2513 1 29.1007 2.10193 -10.5961 0.00218611 1 
2514 1 26.6334 0.679292 -10.2932 0.0011391 1 
2515 1 27.2671 0.203766 -7.53718 0.0126698 1 
2573 1 26.0059 1.1553 -13.041 0.000238866 1 
3277 1 -1.29263 16.4465 -1.27519 1.18932 5 
3278 1 -0.587966 19.2147 -9.92366 0.0015208 1 
3279 1 -0.590629 16.5311 -8.87218 0.00239321 1 
3280 1 50.6616 17.3052 -6.83524 0.00717933 1 
3281 1 -1.8594 16.8113 -4.05608 0.0606395 1 
3282 1 50.6696 14.6308 -5.73472 0.0459017 1 
3283 1 51.2848 14.1165 -2.87724 0.792819 1 
3284 1 48.7897 15.421 -3.73045 0.268758 1 
3285 1 49.1626 14.7046 -1.05278 7.15979 5 
3286 1 48.8015 12.683 -2.76836 7.21387 5 
3287 1 49.1867 12.1728 0.0859904 8.75065 5 
3289 1 -1.19799 19.6991 -12.6667 0.000330864 1 
3290 1 -1.81199 17.5018 -14.3882 0.000109579 1 
3291 1 -1.19928 17.0192 -11.6327 0.000568707 1 
3292 1 49.4464 18.2838 -12.3514 0.000283405 1 
3293 1 50.0567 17.7982 -9.59634 0.00155606 1 
3294 1 49.4473 15.6094 -11.3156 0.00121554 1 
3295 1 50.0604 15.1243 -8.53996 0.00785005 1 
3296 1 47.587 16.3953 -9.27967 0.0025926 1 
3297 1 48.1916 15.9122 -6.50931 0.0189992 1 
3298 1 47.5884 13.7296 -8.26689 0.00327047 1 
3299 1 48.2094 13.2422 -5.52642 0.0437487 1 
3300 1 45.7206 14.5231 -6.23736 0.0306855 1 
3301 1 46.3907 14.0448 -3.48265 6.14908 5 
3302 1 45.7049 11.8773 -5.28012 0.0635581 1 
3303 1 46.2701 11.454 -2.5757 2.5039 5 
3304 1 43.8375 12.6409 -3.26459 0.655228 1 
3305 1 44.4668 12.636 -0.491802 8.19142 5 
3306 1 43.8241 10.1614 -1.72258 7.52123 5 
3307 1 41.3864 10.7419 -0.207226 6.78965 5 
3319 1 48.833 16.0893 -14.0773 0.000169247 1 
3320 1 46.3622 17.3506 -14.7966 4.18936e-05 1 
3321 1 46.976 16.8739 -12.0405 0.000333968 1 
3322 1 46.361 14.6783 -13.7742 7.8467e-05 1 
3323 1 46.9747 14.2042 -11.0202 0.000442231 1 
3324 1 44.5021 15.4641 -11.7405 0.000297335 1 
3325 1 45.1119 14.9942 -8.98961 0.00250828 1 
3326 1 44.4963 12.7936 -10.7261 0.00122778 1 
3327 1 45.1033 12.3283 -7.99268 0.0088979 1 
3328 1 42.626 13.5761 -8.69866 0.00452458 1 
3329 1 43.2221 13.1077 -5.98069 0.0353184 1 
3330 1 42.6214 10.9022 -7.64872 0.0135686 1 
3331 1 43.222 10.4523 -4.8624 0.298378 1 
3332 1 40.7355 11.6802 -5.62239 0.0498434 1 
3333 1 41.3448 11.2479 -2.90687 1.85068 5 
3334 1 40.7466 9.0159 -4.55631 0.588441 5 
3335 1 41.4736 8.60667 -1.86545 6.77328 5 
3336 1 38.9264 10.0649 -1.84503 12.7159 5 
3337 1 39.1493 7.12896 -1.69037 7.40536 5 
3357 1 43.8897 15.9371 -14.492 5.32338e-05 1 
3359 1 43.8864 13.2642 -13.4713 0.000208519 1 
3360 1 41.4159 14.5202 -14.1851 0.000134289 1 
3361 1 42.0246 14.0467 -11.4377 0.000644589 1 
3362 1 41.4126 11.8455 -13.1585 0.000148219 1 
3363 1 42.0193 11.3722 -10.4075 0.000689739 1 
3364 1 39.5512 12.6249 -11.1174 0.00054695 1 
3365 1 40.1522 12.1508 -8.36665 0.00419389 1 
3366 1 39.5493 9.95133 -10.0822 0.00234951 1 
3367 1 40.1535 9.47686 -7.33104 0.0182127 1 
3368 1 37.6969 10.7243 -7.99682 0.0284836 1 
3369 1 38.303 10.2552 -5.17319 0.547486 5 
3370 1 37.7054 8.04668 -7.0154 0.0314335 1 
3371 1 38.3455 7.56585 -4.30214 0.865159 5 
3372 1 35.8687 8.82108 -4.95491 0.114787 1 
3373 1 36.6186 8.44399 -2.3149 5.65484 5 
3374 1 35.8817 6.04753 -3.90347 0.494877 1 
3375 1 36.7275 5.85649 -1.20644 4.49663 5 
3376 1 34.2574 7.02536 -1.9179 7.91302 5 
3377 1 33.9614 2.93924 -0.948831 7.96089 5 
3407 1 38.944 13.1009 -13.8702 0.000135884 1 
3409 1 38.9429 10.4265 -12.8378 0.000303989 1 
3410 1 36.4763 11.682 -13.5486 0.000242835 1 
3411 1 37.0864 11.2031 -10.782 0.00220991 1 
3412 1 36.4792 9.00904 -12.5154 0.000194195 1 
3413 1 37.0909 8.53124 -9.75507 0.00243104 1 
3414 1 34.6251 9.78662 -10.4634 0.000454095 1 
3415 1 35.2394 9.30484 -7.6943 0.00457366 1 
3416 1 34.639 7.10964 -9.42488 0.00167189 1 
3417 1 35.2554 6.60594 -6.64878 0.0162664 1 
3418 1 32.7976 7.88374 -7.37822 0.0119813 1 
3419 1 33.4441 7.37739 -4.59785 0.228875 1 
3420 1 32.7955 5.19736 -6.28929 0.126714 1 
3421 1 33.3227 4.53306 -3.37797 6.73932 5 
3422 1 30.9762 5.98105 -4.32457 2.78126 5 
3423 1 32.1549 5.51396 -1.02618 10.6176 5 
3424 1 31.7378 1.91819 -2.6428 13.1573 5 
3425 1 30.3054 4.1554 -2.33771 9.00294 5 
3426 1 29.2248 2.26724 -0.599203 6.14794 5 
3468 1 34.0117 10.2665 -13.2309 0.000180533 1 
3469 1 33.4016 8.07221 -14.9629 0.000128298 1 
3470 1 34.0197 7.59372 -12.1967 0.000345335 1 
3471 1 31.5495 8.85443 -12.9199 0.000293277 1 
3472 1 32.1698 8.37406 -10.1507 0.00124446 1 
3473 1 31.5602 6.18398 -11.8893 0.00158303 1 
3474 1 32.1849 5.70192 -9.10561 0.0125769 1 
3475 1 29.708 6.97018 -9.85847 0.00186889 1 
3476 1 30.3295 6.49284 -7.09082 0.0152476 1 
3477 1 29.7203 4.30093 -8.84291 0.00687869 1 
3478 1 30.3175 3.82646 -6.08225 2.02398 5 
3479 1 27.8508 5.11986 -6.86094 0.0235438 1 
3480 1 28.3856 4.70528 -4.15408 5.10431 5 
3481 1 27.8857 2.42593 -5.87886 0.0940374 1 
3482 1 28.5837 2.07047 -3.22486 6.23773 5 
3483 1 25.9824 3.2705 -3.95427 0.254501 1 
3484 1 26.6115 2.89542 -1.40049 11.667 5 
3485 1 26.0046 0.608165 -2.85531 0.649715 5 
49406 3 2.73294 40.3834 0.116334 2.25357 5 
3487 1 24.1752 1.71693 -0.671924 4.57557 5 
3537 1 30.9374 6.66025 -14.6568 0.00026425 1 
3539 1 29.0852 7.44561 -12.6215 0.000350784 1 
3540 1 28.47 5.24814 -14.3607 0.000142737 1 
3541 1 29.0941 4.77523 -11.6047 0.000691699 1 
3542 1 26.616 6.03606 -12.3328 0.00045826 1 
3543 1 27.2385 5.56921 -9.58901 0.00283561 1 
3544 1 26.6234 3.35991 -11.321 0.00125999 1 
3545 1 27.2502 2.88913 -8.58759 0.00851307 1 
3546 1 24.7655 4.15312 -9.30943 0.00458523 1 
3547 1 25.3854 3.69618 -6.60844 0.0294618 1 
3548 1 24.7803 1.46728 -8.28279 0.0055699 1 
3549 1 25.4123 1.01325 -5.55871 0.0404622 1 
3550 1 22.9227 2.25271 -6.26212 0.0127689 1 
3551 1 23.5481 1.80891 -3.51459 0.236068 1 
3552 1 21.1067 0.408129 -3.19993 0.453972 1 
3612 1 25.9998 3.83265 -14.0644 0.000253975 1 
3613 1 23.5236 5.09124 -14.782 0.000180929 1 
3614 1 24.1443 4.61968 -12.0395 0.000820562 1 
3615 1 23.5289 2.41431 -13.7593 0.000228905 1 
3616 1 24.1529 1.93956 -11.0171 0.000958029 1 
3617 1 21.6736 3.19767 -11.7299 0.000529903 1 
3618 1 22.2972 2.72409 -8.993 0.00211841 1 
3619 1 21.6849 0.519261 -10.694 0.000651361 1 
3620 1 22.3198 0.0437255 -7.93648 0.00818596 1 
3621 1 19.8317 1.30165 -8.6602 0.00247996 1 
3622 1 20.4626 0.835469 -5.91715 0.0261897 1 
3692 1 21.0525 3.67268 -14.4733 0.000153896 1 
3694 1 21.0587 0.995985 -13.4442 0.000122974 1 
3695 1 18.5826 2.25464 -14.1567 0.000114668 1 
3696 1 19.2047 1.77739 -11.4075 0.000443867 1 
3697 1 16.7379 0.361655 -11.08 0.00051246 1 
3777 1 16.1146 0.839142 -13.8365 0.000122969 1 
4412 1 -1.22933 21.7713 -3.57428 0.271532 1 
4413 1 -0.434613 21.4201 -1.04126 10.5021 5 
4414 1 -1.20114 19.0831 -2.48581 0.195455 1 
4415 1 50.1454 20.0429 -0.577269 2.73009 5 
4416 1 -0.57377 24.5782 -11.956 0.000302314 1 
4417 1 -0.582237 21.9012 -10.9458 0.00128581 1 
4418 1 -2.44678 22.6888 -8.91825 0.00437359 1 
4419 1 -1.83928 22.2137 -6.2203 0.029787 1 
4420 1 -2.4511 19.9955 -7.89854 0.00423644 1 
4421 1 -1.83987 19.5053 -5.18121 0.0268934 1 
4422 1 48.7957 20.7895 -5.86787 0.0136513 1 
4423 1 49.4109 20.3161 -3.19735 0.116017 1 
4424 1 48.7947 18.0868 -4.80389 0.0243713 1 
4425 1 49.4119 17.643 -2.05243 0.689739 5 
4426 1 46.973 18.8507 -2.73768 0.300909 1 
4427 1 46.944 16.2323 -1.44516 3.73978 5 
4429 1 -1.18946 25.0529 -14.7071 7.76079e-05 1 
4431 1 -1.19456 22.3784 -13.6884 0.000207402 1 
4432 1 49.4506 23.6381 -14.4009 9.47572e-05 1 
4433 1 50.0621 23.1633 -11.6532 0.000571156 1 
4434 1 49.4475 20.9621 -13.3791 0.000135182 1 
4435 1 50.0582 20.482 -10.6336 0.000781305 1 
4436 1 47.59 21.7476 -11.3396 0.000262799 1 
4437 1 48.1985 21.2698 -8.59551 0.00196703 1 
4438 1 47.5891 19.0684 -10.3131 0.000499321 1 
4439 1 48.196 18.583 -7.55809 0.00294711 1 
4440 1 45.7364 19.8541 -8.2684 0.00226032 1 
4441 1 46.347 19.3705 -5.50046 0.0176797 1 
4442 1 45.729 17.1825 -7.22463 0.0186828 1 
4443 1 46.3119 16.685 -4.41513 0.209008 1 
4444 1 43.8724 17.9957 -5.19482 0.0504144 1 
4445 1 44.4863 17.5397 -2.38338 1.68041 5 
4446 1 43.7873 15.3481 -4.31344 0.406853 1 
4447 1 44.465 14.9113 -1.78134 12.7591 5 
4448 1 41.9296 16.2347 -2.0782 9.64711 5 
4449 1 41.9371 13.5688 -1.4551 7.30474 5 
4463 1 46.9781 22.2234 -14.0905 4.95857e-05 1 
4465 1 46.9771 19.5479 -13.0669 7.72818e-05 1 
4466 1 44.5081 20.8091 -13.781 3.91596e-05 1 
4467 1 45.1226 20.333 -11.0262 0.000284747 1 
4468 1 44.5064 18.1353 -12.7589 0.000132781 1 
4469 1 45.1195 17.6602 -9.99987 0.0015774 1 
4470 1 42.6508 18.9205 -10.724 0.000343367 1 
4471 1 43.2631 18.451 -7.96702 0.00414258 1 
4472 1 42.6393 16.251 -9.71214 0.00179665 1 
4473 1 43.234 15.7924 -6.98309 0.0254369 1 
4474 1 40.7725 17.0391 -7.67871 0.00403061 1 
4475 1 41.3472 16.5961 -4.9174 0.0545686 1 
4476 1 40.7416 14.3724 -6.67727 0.0232651 1 
4477 1 41.3158 13.9449 -4.01592 0.254228 1 
4478 1 38.8313 15.1886 -4.65939 0.212432 1 
4479 1 39.4153 14.8698 -2.05441 8.77111 5 
4480 1 38.8968 12.4855 -3.49782 0.988624 1 
4481 1 39.425 12.6557 -0.551099 6.85938 5 
4482 1 36.9258 13.368 -1.63128 7.15663 5 
4483 1 36.2376 10.4228 -0.405982 4.63327 5 
4507 1 42.0367 19.3945 -13.4763 5.19682e-05 1 
4509 1 42.0317 16.7209 -12.4579 0.00022278 1 
4510 1 39.5629 17.9772 -13.1722 0.000141561 1 
4511 1 40.1719 17.5038 -10.425 0.000593008 1 
4512 1 39.5565 15.3011 -12.1493 0.000395936 1 
4513 1 40.1589 14.8294 -9.40518 0.00258695 1 
4514 1 37.6947 16.0803 -10.1147 0.00142759 1 
4515 1 38.2859 15.6144 -7.37707 0.0144595 1 
4516 1 37.6895 13.399 -9.07096 0.00265886 1 
4517 1 38.2884 12.9279 -6.30684 0.0249751 1 
4518 1 35.8231 14.184 -7.03545 0.00714285 1 
4519 1 36.4154 13.7637 -4.2985 0.126176 1 
4520 1 35.834 11.5133 -5.96485 0.0297328 1 
4521 1 36.4628 11.1051 -3.17788 1.80719 5 
4522 1 33.9746 12.3145 -3.8601 0.555917 1 
4523 1 34.3681 12.3412 -0.773522 7.72906 5 
4524 1 34.1104 9.69657 -2.74555 4.53266 5 
4525 1 32.0973 10.5177 -0.995326 7.98074 5 
4557 1 38.9471 15.7767 -14.8988 9.49297e-05 1 
4559 1 37.0899 16.5566 -12.8621 0.000254736 1 
4560 1 36.4767 14.3573 -14.5841 0.000105715 1 
4561 1 37.0858 13.8782 -11.8285 0.000416605 1 
4562 1 34.6206 15.1356 -12.5452 0.000227352 1 
4563 1 35.2265 14.6555 -9.78898 0.00077559 1 
4564 1 34.6203 12.4593 -11.5039 0.000327204 1 
4565 1 35.2284 11.9788 -8.73548 0.00232287 1 
4566 1 32.7632 13.2344 -9.45605 0.00261099 1 
4567 1 33.3664 12.749 -6.67051 0.0303438 1 
4568 1 32.7756 10.5625 -8.40431 0.00717997 1 
4569 1 33.4063 10.0733 -5.60514 0.0893301 1 
4570 1 30.9095 11.3465 -6.38569 0.0545673 1 
4571 1 31.5238 10.8443 -3.66212 1.30127 5 
4572 1 30.9583 8.65772 -5.36931 0.0377334 1 
4573 1 31.689 8.13408 -2.609 0.88579 5 
4574 1 29.1088 9.48983 -3.33124 0.959517 5 
4575 1 29.9028 8.94879 -0.768911 9.01734 5 
4576 1 29.2154 6.6908 -2.2746 4.26838 5 
4620 1 34.009 12.9397 -14.2667 0.000107424 1 
4621 1 31.5408 14.199 -14.9863 0.000100683 1 
4622 1 32.1536 13.7179 -12.2251 0.000412658 1 
4623 1 31.543 11.5257 -13.9515 0.000225051 1 
4624 1 32.1579 11.0459 -11.1831 0.000998804 1 
4625 1 29.6867 12.308 -11.9105 0.000655521 1 
4626 1 30.2984 11.8303 -9.14302 0.00501113 1 
4627 1 29.6951 9.63973 -10.8811 0.000492426 1 
4628 1 30.3154 9.1607 -8.11822 0.00357071 1 
4629 1 27.8383 10.4354 -8.8362 0.00329003 1 
4630 1 28.4553 9.97365 -6.06854 0.0295216 1 
4631 1 27.847 7.77914 -7.8327 0.00590079 1 
4632 1 28.4836 7.33423 -5.08251 0.121137 1 
4633 1 25.9888 8.57858 -5.77376 0.0306377 1 
4634 1 26.6895 8.0514 -3.03919 0.409066 1 
4635 1 25.9784 5.93317 -4.85172 0.0560292 1 
4636 1 26.5619 5.53724 -2.01577 12.7599 5 
4637 1 24.1112 6.7149 -2.85322 5.66782 5 
4638 1 24.0781 4.12341 -1.94242 5.86965 5 
4690 1 29.0726 12.7861 -14.6742 0.000139551 1 
4692 1 29.0771 10.1156 -13.6449 0.000176193 1 
4693 1 26.6046 11.376 -14.3673 0.000157094 1 
4694 1 27.2213 10.9032 -11.6042 0.00064203 1 
4695 1 26.6095 8.70692 -13.3463 0.000209251 1 
4696 1 27.2292 8.23829 -10.5894 0.000906057 1 
4697 1 24.753 9.49642 -11.3114 0.000608623 1 
4698 1 25.3713 9.03453 -8.55041 0.00285724 1 
4699 1 24.7574 6.83012 -10.3085 0.00158076 1 
4700 1 25.3733 6.37786 -7.57473 0.00745416 1 
4701 1 22.8938 7.62516 -8.2823 0.00399529 1 
4702 1 23.5104 7.18281 -5.54982 0.0304288 1 
4703 1 22.9016 4.94975 -7.29916 0.0112596 1 
4704 1 23.5097 4.4931 -4.61894 0.0854339 1 
4705 1 21.0444 5.74302 -5.28071 0.0273737 1 
4706 1 21.6798 5.31184 -2.53741 5.54196 5 
4707 1 21.0595 3.07131 -4.25757 0.0249316 1 
4708 1 21.6675 2.66773 -1.56372 6.74807 5 
4709 1 19.2454 3.8981 -2.22354 0.387302 1 
4710 1 19.251 1.42801 -0.878771 3.63389 5 
4772 1 24.1349 9.96531 -14.0676 0.000142915 1 
4774 1 24.1386 7.29477 -13.0525 0.000336289 1 
4775 1 21.6624 8.55115 -13.7693 0.000203637 1 
4776 1 22.2792 8.08346 -11.0239 0.000799448 1 
4777 1 21.6662 5.87663 -12.7526 0.000444943 1 
4778 1 22.2848 5.40849 -10.0173 0.00206655 1 
4779 1 19.8046 6.66197 -10.7246 0.00110925 1 
4780 1 20.4225 6.19732 -7.99808 0.00562925 1 
4781 1 19.8157 3.98069 -9.70116 0.00129859 1 
4782 1 20.4382 3.51287 -6.97219 0.004666 1 
4783 1 17.9565 4.75831 -7.67061 0.00565286 1 
4784 1 18.5836 4.29144 -4.94677 0.0268066 1 
4785 1 17.9808 2.07541 -6.60181 0.0105294 1 
4786 1 18.6127 1.61821 -3.81152 0.204033 1 
4787 1 16.1276 2.85653 -4.56178 0.0386516 1 
4788 1 16.7585 2.4603 -1.81829 1.03737 5 
4789 1 16.1513 0.183014 -3.51035 0.652434 1 
4790 1 14.41 1.08089 -0.842959 12.1576 5 
4864 1 19.1895 7.13281 -13.4638 0.000278456 1 
4866 1 19.1956 4.45508 -12.4399 0.000375547 1 
4867 1 16.7199 5.71256 -13.1472 0.000240933 1 
4868 1 17.337 5.23559 -10.4043 0.00102784 1 
4869 1 16.7279 3.03518 -12.1149 0.000279895 1 
4870 1 17.3507 2.55515 -9.36223 0.00134703 1 
4871 1 14.8733 3.81417 -10.0678 0.000746983 1 
4872 1 15.4993 3.33484 -7.31256 0.00390421 1 
4873 1 14.8858 1.14288 -9.02878 0.00264004 1 
4874 1 15.5205 0.657818 -6.27574 0.0206951 1 
4875 1 13.0411 1.91325 -6.94219 0.021933 1 
4876 1 13.694 1.43865 -4.13433 0.364037 1 
26361 2 38.4445 39.2386 1.5949 6.29405 5 
25160 2 35.5976 27.2192 1.7651 0.634571 1 
4959 1 16.1086 3.51339 -14.8673 7.88223e-05 1 
4961 1 14.254 4.29433 -12.8227 0.000179452 1 
4962 1 13.6422 2.0985 -14.5481 0.000129007 1 
4963 1 14.2621 1.62115 -11.7886 0.000559593 1 
4964 1 11.7909 2.88037 -12.4982 0.000704193 1 
4965 1 12.4105 2.40048 -9.72673 0.00418115 1 
4966 1 11.8005 0.210026 -11.4724 0.000752198 1 
4967 1 9.95223 0.997237 -9.42209 0.00320951 1 
4968 1 10.5694 0.526 -6.64656 0.0201428 1 
5059 1 11.1781 0.685207 -14.2349 0.000173023 1 
5060 1 8.70742 1.94502 -14.9529 0.00014679 1 
5061 1 9.32999 1.47018 -12.1909 0.000618468 1 
5062 1 6.86529 0.0577231 -11.9004 0.000965128 1 
5153 1 6.24136 0.53092 -14.6528 0.000158327 1 
5640 1 -1.16918 27.0693 -5.43412 0.0247928 1 
5641 1 -0.509675 26.5792 -2.64783 2.26594 5 
5642 1 -1.20316 24.4294 -4.47566 0.0500379 1 
5643 1 -0.577836 24.0349 -1.68818 11.9316 5 
5644 1 -3.02502 25.2392 -2.4755 5.25631 5 
5645 1 50.0146 22.5807 -1.55248 7.49716 5 
5646 1 -0.560966 29.9201 -13.9946 7.72488e-05 1 
5647 1 -0.566191 27.2499 -12.9724 0.000127776 1 
5648 1 -2.41929 28.0331 -10.9391 0.000295106 1 
5649 1 -1.79817 27.5565 -8.18918 0.00177751 1 
5650 1 -2.43229 25.364 -9.92426 0.00120348 1 
5651 1 -1.82124 24.8933 -7.18999 0.00768335 1 
5652 1 48.8175 26.1513 -7.88434 0.00517231 1 
5653 1 49.4188 25.6897 -5.15007 0.0446121 1 
5654 1 48.7931 23.4872 -6.87559 0.0164549 1 
5655 1 49.4037 23.0204 -4.20285 0.0615315 1 
5656 1 46.9262 24.2858 -4.77026 0.0949126 1 
5657 1 47.5429 23.8319 -2.05031 6.96046 5 
5658 1 46.9373 21.5998 -3.78637 0.0833661 1 
5659 1 47.5785 21.1671 -1.1331 5.0931 5 
5660 1 45.1032 22.4139 -1.50697 7.92275 5 
5661 1 45.1983 19.7048 -0.782285 6.44974 5 
5667 1 -3.03752 28.5077 -13.692 7.50162e-05 1 
5669 1 -3.04502 25.8368 -12.671 0.000212537 1 
5670 1 47.6001 27.0942 -13.3839 0.000107874 1 
5671 1 48.2119 26.6208 -10.6321 0.000639025 1 
5672 1 47.5931 24.4228 -12.3602 0.00025806 1 
5673 1 48.1997 23.9513 -9.61093 0.0018184 1 
5674 1 45.7348 25.2072 -10.3104 0.00157035 1 
5675 1 46.3362 24.7395 -7.54572 0.0114304 1 
5676 1 45.7347 22.5345 -9.29212 0.00103195 1 
5677 1 46.3467 22.0611 -6.54 0.00943136 1 
5678 1 43.8906 23.3175 -7.22981 0.0108649 1 
5679 1 44.531 22.858 -4.44347 0.224902 1 
5680 1 43.8959 20.6479 -6.23035 0.0155457 1 
5681 1 44.5054 20.203 -3.46504 0.162293 1 
5682 1 42.0486 21.3676 -4.21774 0.108029 1 
5683 1 42.6747 20.8447 -1.36391 5.5919 5 
5684 1 42.0307 18.7524 -3.14959 0.266072 1 
5685 1 40.3173 19.3175 -1.00488 8.50143 5 
5703 1 45.1253 25.6802 -13.0694 0.000215242 1 
5704 1 44.5093 23.4826 -14.8026 4.45586e-05 1 
5705 1 45.1225 23.0084 -12.0469 0.000175388 1 
5706 1 42.6551 24.2664 -12.7576 0.000204765 1 
5707 1 43.2698 23.7928 -9.99625 0.00123549 1 
5708 1 42.6544 21.5939 -11.7409 0.000194866 1 
5709 1 43.2722 21.1188 -8.98706 0.00143544 1 
5710 1 40.8031 22.375 -9.70212 0.000786676 1 
5711 1 41.428 21.8897 -6.95537 0.00721835 1 
5712 1 40.7966 19.701 -8.69009 0.00112171 1 
5713 1 41.407 19.2206 -5.92803 0.00945322 1 
5714 1 38.9483 20.4703 -6.65602 0.00560749 1 
5715 1 39.5568 19.9962 -3.88546 0.228815 1 
5716 1 38.9061 17.8247 -5.64344 0.0189447 1 
5717 1 39.4516 17.4411 -2.86138 5.45597 5 
5718 1 37.0296 18.6013 -3.59453 1.48336 5 
5719 1 36.9109 16.0713 -2.37474 10.6036 5 
5745 1 42.0388 22.0683 -14.4952 3.97706e-05 1 
5747 1 40.1851 22.8514 -12.4545 0.000121875 1 
5748 1 39.5672 20.6524 -14.1907 4.59888e-05 1 
5749 1 40.1818 20.1772 -11.4403 0.000159767 1 
5750 1 37.713 21.4343 -12.1523 0.000146258 1 
5751 1 38.3288 20.9557 -9.40424 0.000817739 1 
5752 1 37.7058 18.7579 -11.1371 0.000372332 1 
5753 1 38.3109 18.284 -8.39178 0.00219502 1 
5754 1 35.8503 19.5347 -9.09905 0.000978945 1 
5755 1 36.4531 19.0523 -6.34754 0.00695816 1 
5756 1 35.8333 16.8591 -8.0729 0.00214587 1 
5757 1 36.4173 16.402 -5.30633 0.0681626 1 
5758 1 33.9762 17.6365 -6.03793 0.00559382 1 
5759 1 34.556 17.2079 -3.27997 6.18042 5 
5760 1 33.9347 14.973 -5.02035 0.0598757 1 
5761 1 34.4951 14.6082 -2.3227 6.24923 5 
5762 1 32.0147 15.8145 -3.01901 0.410869 1 
5763 1 31.9392 13.0795 -1.98477 3.08059 5 
5797 1 37.0983 21.9104 -14.9036 4.6574e-05 1 
5799 1 37.0948 19.2345 -13.8851 9.42565e-05 1 
5800 1 34.6273 20.4929 -14.5978 6.41852e-05 1 
5801 1 35.2403 20.015 -11.8475 0.000193033 1 
5802 1 34.6239 17.8146 -13.576 0.000147917 1 
5803 1 35.233 17.3353 -10.8254 0.000462056 1 
5804 1 32.7696 18.5943 -11.5419 0.00051329 1 
5805 1 33.3782 18.1127 -8.79289 0.0018961 1 
5806 1 32.7633 15.9128 -10.5101 0.000933055 1 
5807 1 33.3618 15.4326 -7.75669 0.00605167 1 
5808 1 30.9013 16.6896 -8.48369 0.0038753 1 
5809 1 31.4835 16.2215 -5.73572 0.0244278 1 
5810 1 30.8952 14.0168 -7.42093 0.0101007 1 
5811 1 31.4669 13.5473 -4.66674 0.133199 1 
5812 1 29.0225 14.7919 -5.33443 0.0414778 1 
5813 1 29.5824 14.3582 -2.43003 1.10064 5 
5814 1 29.0574 12.1547 -4.18853 0.649306 5 
5815 1 29.5493 11.8582 -0.753373 12.4615 5 
5816 1 27.1776 12.8761 -2.11337 1.98103 5 
5817 1 27.2827 10.1115 -1.23078 6.19469 5 
5863 1 32.1569 19.0744 -14.2915 0.000137936 1 
5865 1 32.1542 16.3951 -13.2641 0.00023589 1 
5866 1 29.686 17.6561 -13.983 0.000191462 1 
5867 1 30.2975 17.1736 -11.2327 0.00082232 1 
5868 1 29.6849 14.9789 -12.9487 0.000249841 1 
5869 1 30.2945 14.4968 -10.1871 0.00120865 1 
5870 1 27.8274 15.7558 -10.9089 0.00121566 1 
5871 1 28.4327 15.2679 -8.13595 0.00635211 1 
5872 1 27.8307 13.0896 -9.8545 0.00525085 1 
5873 1 28.4448 12.6135 -7.04887 0.0408371 1 
5874 1 25.9724 13.8659 -7.80252 0.00708133 1 
5875 1 26.5787 13.3823 -4.99411 0.0329875 1 
5876 1 25.9843 11.2181 -6.77302 0.00557908 1 
5877 1 26.6053 10.7434 -3.95958 0.132256 1 
5878 1 24.1438 11.9709 -4.67658 0.157072 1 
5879 1 24.8126 11.4468 -1.61895 6.40076 5 
5880 1 24.1546 9.35747 -3.68896 0.307201 1 
5881 1 24.9018 8.52747 -0.967801 10.0417 5 
5882 1 22.3213 10.115 -1.76131 3.28512 5 
5938 1 27.2157 16.2398 -13.669 0.000228516 1 
5940 1 27.2171 13.568 -12.6313 0.000774077 1 
5941 1 24.7463 14.8282 -13.3558 0.000338259 1 
5942 1 25.3603 14.348 -10.5881 0.00173454 1 
5943 1 24.7487 12.1608 -12.3276 0.000440158 1 
5944 1 25.3653 11.6891 -9.55755 0.00170181 1 
5945 1 22.8933 12.9437 -10.2862 0.00236632 1 
5946 1 23.5173 12.464 -7.50189 0.0188178 1 
5947 1 22.8956 10.2843 -9.2773 0.00246006 1 
5948 1 23.5168 9.81964 -6.5078 0.0138274 1 
5949 1 21.0314 11.0634 -7.26296 0.00531561 1 
5950 1 21.6453 10.5802 -4.51473 0.0460466 1 
5951 1 21.0284 8.40833 -6.24889 0.022037 1 
5952 1 21.6428 7.9543 -3.4858 6.29717 5 
5953 1 19.1226 9.24973 -4.30923 0.606695 1 
5954 1 19.6771 8.82782 -1.72435 8.26201 5 
5955 1 19.1704 6.55445 -3.32164 0.222256 1 
5956 1 17.3314 7.38192 -1.14184 8.6754 5 
6022 1 22.2762 13.4189 -13.0515 0.000313872 1 
6023 1 21.6609 11.2227 -14.7875 8.91152e-05 1 
6024 1 22.2775 10.7515 -12.0341 0.000444795 1 
6025 1 19.802 12.0074 -12.7553 0.000236231 1 
6026 1 20.4162 11.5363 -10.0079 0.00104022 1 
6027 1 19.8013 9.33634 -11.7388 0.000468422 1 
6028 1 20.4157 8.86906 -8.99801 0.00209251 1 
6029 1 17.9326 10.123 -9.71067 0.00362918 1 
6030 1 18.535 9.66274 -6.99416 0.0396974 1 
6031 1 17.9358 7.44707 -8.6958 0.00502322 1 
6032 1 18.5557 6.98391 -5.99422 0.040834 1 
6033 1 16.0633 8.24537 -6.63346 0.0269102 1 
6034 1 16.7327 7.83845 -3.89627 0.305986 1 
6035 1 16.1149 5.56388 -5.63353 0.0269018 1 
6036 1 16.7366 5.11586 -2.95131 0.138291 1 
6037 1 14.2976 6.31651 -3.64373 0.209296 1 
6038 1 14.314 3.60113 -2.43935 0.7036 1 
6114 1 19.1875 9.80733 -14.4844 0.000141838 1 
6116 1 17.3258 10.5912 -12.45 0.000472383 1 
6117 1 16.7152 8.38932 -14.173 0.000172983 1 
6118 1 17.3272 7.91622 -11.4287 0.00071291 1 
6119 1 14.8545 9.17138 -12.1308 0.000252803 1 
6120 1 15.4627 8.70069 -9.38254 0.00149032 1 
6121 1 14.862 6.49346 -11.1048 0.000472058 1 