ITEM: TIMESTEP
0
ITEM: NUMBER OF ATOMS
10971
ITEM: BOX BOUNDS xy xz yz pp pp ss
-153.294177031 41.30205806 -153.294177031
0 148.328791165 0
-148.2900961990004 160.0574224996225 0
ITEM: ATOMS id type x y z c_csym c_cna 
1 1 -0.349373 1.86727 -0.19858 10.4677 5 
2 1 -2.21537 18.9927 -0.921383 0.838705 1 
3 1 -2.20301 21.8038 -0.253781 3.09641 5 
4 1 -0.324591 10.2293 -2.81989 5.51973 5 
5 1 -2.65894 13.2713 -1.49561 5.81071 5 
6 1 -2.14003 15.9716 -1.32562 11.5139 5 
7 1 -5.13621 18.8093 -0.419062 7.09685 5 
8 1 -1.31942 4.70284 -3.88436 0.224787 1 
9 1 -0.873998 7.44841 -3.33475 3.07044 5 
10 1 -2.12163 6.07439 -1.16208 5.97641 5 
11 1 -3.64294 7.76104 -2.64551 4.69922 5 
12 1 -3.01176 10.501 -2.05848 5.26657 5 
13 1 -5.72299 10.68 -1.34333 1.65453 5 
14 1 -7.84252 17.7362 -0.0176864 8.92297 5 
15 1 -1.71088 1.93104 -4.48797 0.0997238 1 
16 1 38.3549 0.344026 -2.58016 1.71324 5 
17 1 -2.37503 3.17721 -1.7828 1.71364 5 
18 1 36.8555 2.26141 -3.82268 0.188226 1 
19 1 -4.04626 4.98779 -3.15825 0.214814 1 
20 1 36.0797 3.22393 -1.20214 0.967392 1 
21 1 -4.97843 6.1024 -0.599079 5.49402 5 
22 1 34.4657 5.17042 -2.61055 0.14636 1 
23 1 -6.45395 7.96155 -2.07957 4.94338 5 
24 1 32.0487 8.16273 -1.54572 11.2997 5 
25 1 -8.5363 10.7953 -0.80749 6.52204 5 
26 1 35.5891 0.531252 -2.02934 1.25912 5 
27 1 34.0723 2.47616 -3.2518 0.158314 1 
28 1 32.8304 0.751915 -1.4509 6.87176 5 
29 1 33.1456 3.38078 -0.690435 6.51485 5 
30 1 31.2519 2.74766 -2.69299 2.9101 5 
31 1 31.5955 5.44789 -2.02417 4.75132 5 
32 1 28.8551 6.07606 -1.1624 5.98689 5 
33 1 30.7999 0.00640743 -3.16873 1.29303 5 
34 1 30.6266 1.86723 -0.198903 10.4592 5 
35 1 28.0295 0.345303 -2.58005 1.7097 5 
36 1 28.6013 3.17877 -1.78251 1.71155 5 
37 1 25.7541 3.22577 -1.20195 0.968127 1 
38 1 25.9993 6.10505 -0.599947 5.50177 5 
39 1 25.264 0.532795 -2.02921 1.25746 5 
40 1 22.5056 0.753524 -1.45068 6.86989 5 
41 1 22.8199 3.38278 -0.690215 6.52416 5 
42 1 20.3009 1.86729 -0.199095 10.4491 5 
43 1 -0.351587 35.9818 -1.33644 9.05423 5 
44 1 -1.27466 30.6847 -2.51088 4.00842 5 
45 1 -0.542928 33.3237 -2.07209 8.17753 5 
46 1 -2.72953 34.197 -0.849569 10.5233 5 
47 1 -0.677064 23.4059 -2.38551 5.27478 5 
48 1 -2.12777 25.263 -3.71152 0.327371 1 
49 1 -1.73242 27.9707 -3.15158 0.579715 1 
50 1 -2.53035 26.3883 -1.01954 2.8475 5 
51 1 -4.44572 28.2678 -2.31684 1.0138 1 
52 1 -4.06521 31.1282 -1.73816 6.05587 5 
53 1 -6.90085 31.1251 -1.27838 10.4474 5 
54 1 -5.37348 33.5819 -0.51333 6.18584 5 
55 1 -0.410023 16.5498 -5.72479 0.0738965 1 
56 1 -1.16243 17.7451 -3.21236 0.623294 1 
57 1 -1.01619 20.6598 -2.81297 0.544489 5 
58 1 -2.87282 19.6218 -4.64622 0.169658 1 
59 1 -2.56112 22.4533 -4.23719 0.0947359 1 
60 1 -3.90857 20.8002 -2.20625 0.758235 1 
61 1 -3.4654 23.6467 -1.79659 5.73402 5 
62 1 -5.34047 22.7213 -3.67088 0.205237 1 
63 1 -4.86308 25.5517 -3.11932 0.741037 5 
64 1 -6.19862 23.7262 -1.27654 10.0044 5 
65 1 -5.28378 26.2022 -0.489606 3.04373 5 
66 1 -7.63047 25.7862 -2.54415 6.70016 5 
67 1 -7.36253 28.4153 -1.78228 6.26971 5 
68 1 -10.0449 29.6288 -0.645388 6.47407 5 
69 1 -1.17961 11.0561 -6.63924 0.0157857 1 
70 1 -0.755171 13.7929 -6.14432 0.0327551 1 
71 1 -1.93059 12.1682 -4.06537 0.0838462 1 
72 1 -1.43176 14.8963 -3.66266 0.312687 1 
73 1 -3.54552 14.0699 -5.47808 0.0460639 1 
74 1 -3.1729 16.8108 -5.09176 0.0724172 1 
75 1 -4.3002 15.1283 -2.91749 7.07653 5 
76 1 -4.02008 17.8862 -2.69405 6.38748 5 
77 1 -5.97408 17.0376 -4.49755 0.567815 1 
78 1 -5.64259 19.9614 -4.16953 0.424458 1 
79 1 -6.90524 18.4024 -2.38638 11.5406 5 
80 1 -6.81955 21.0647 -1.71061 5.66658 5 
81 1 -8.55667 20.3147 -3.6131 1.39736 5 
82 1 -8.21947 23.0701 -2.9794 3.98319 5 
83 1 -9.67834 21.9872 -0.673816 5.37971 5 
84 1 -7.90027 25.4127 0.0871695 8.56506 5 
85 1 -10.9688 23.6142 -2.29527 5.87016 5 
86 1 -9.92108 26.782 -1.34199 9.66955 5 
87 1 -12.7353 26.3264 -1.0256 3.4661 5 
88 1 -0.47818 3.58376 -6.42808 0.00927147 1 
89 1 -2.04074 5.52249 -7.77195 0.001906 1 
90 1 -1.61674 8.29673 -7.20286 0.00585419 1 
91 1 -2.84884 6.6309 -5.22159 0.0159397 1 
92 1 -2.38224 9.39741 -4.63976 0.0434308 1 
93 1 -4.38863 8.57548 -6.562 0.00592512 1 
94 1 -3.95302 11.3344 -5.98737 0.0180228 1 
95 1 -5.1388 9.67163 -3.98716 0.0950926 1 
96 1 -4.70694 12.4048 -3.38824 0.124551 1 
97 1 -6.71809 11.6057 -5.35346 0.0316 1 
98 1 -6.31705 14.3237 -4.82281 0.126015 1 
99 1 -7.40641 12.7014 -2.6862 0.428615 1 
100 1 -6.93858 15.5428 -2.10916 5.17578 5 
101 1 -9.00504 14.6169 -4.18853 0.226077 1 
102 1 -8.84715 17.3658 -3.86501 1.27534 1 
103 1 -9.65071 15.7398 -1.60083 6.86046 5 
104 1 -9.61886 19.1408 -1.42863 3.54886 5 
105 1 -11.4823 17.788 -3.19865 0.719782 1 
106 1 -11.3369 20.7652 -2.75626 0.891942 5 
107 1 -12.5449 19.0094 -0.922335 0.819459 1 
108 1 -12.5916 21.7908 -0.209039 2.37005 5 
109 1 -14.2494 20.8299 -2.18627 0.963666 5 
110 1 -13.7597 23.6837 -1.79998 6.09929 5 
111 1 -16.5026 23.7144 -1.27485 8.13555 5 
112 1 -15.5368 26.1569 -0.480238 6.19354 5 
113 1 40.4168 0.787659 -7.00007 0.00664352 1 
114 1 -114.842 148.254 -8.87368 0.00221049 1 
115 1 -2.45115 2.73607 -8.32913 0.00247361 1 
116 1 37.635 1.07726 -6.37578 0.0108462 1 
117 1 -3.26127 3.87361 -5.79621 0.0203685 1 
118 1 36.0711 3.01788 -7.70645 0.00299428 1 
119 1 -4.81779 5.80351 -7.14145 0.00420512 1 
120 1 35.2839 4.14826 -5.16779 0.0331397 1 
121 1 -5.59839 6.89364 -4.58041 0.0299635 1 
122 1 33.71 6.07516 -6.51654 0.00827815 1 
123 1 -7.14954 8.84575 -5.93516 0.0109879 1 
124 1 32.925 7.14452 -3.99733 0.0676406 1 
125 1 -7.87645 9.9412 -3.38267 0.214836 1 
126 1 31.3841 9.12364 -5.30407 0.0230343 1 
127 1 -9.46241 11.9009 -4.71145 0.0743593 1 
128 1 30.6512 10.2326 -2.81955 5.52024 5 
129 1 -10.2009 12.9804 -2.13014 4.59444 5 
130 1 -12.2558 12.1785 -4.06129 0.0879685 1 
131 1 -11.7541 14.9146 -3.66089 0.333839 1 
132 1 -12.981 13.2863 -1.48973 5.73978 5 
133 1 -12.4685 15.9927 -1.33434 11.3643 5 
134 1 -14.6245 15.1421 -2.91503 7.05654 5 
135 1 -14.3416 17.9098 -2.70215 6.49199 5 
136 1 -15.457 18.7838 -0.416429 7.02004 5 
137 1 -17.2284 18.4114 -2.38675 11.6549 5 
138 1 -17.1523 21.0676 -1.707 5.84975 5 
139 1 -20.0109 21.9907 -0.668116 5.31913 5 
140 1 -18.2035 25.4081 0.0832659 8.55112 5 
141 1 35.6666 0.210752 -8.25456 0.00302116 1 
142 1 34.8712 1.35709 -5.74882 0.0173537 1 
143 1 32.8818 0.49365 -7.6265 0.00404818 1 
144 1 33.2922 3.29489 -7.07727 0.00344951 1 
145 1 32.0741 1.6271 -5.13386 0.014508 1 
146 1 32.489 4.41374 -4.56098 0.0468289 1 
147 1 30.4979 3.58543 -6.42766 0.00925229 1 
148 1 30.9127 6.35805 -5.86537 0.011557 1 
149 1 29.6571 4.70513 -3.88379 0.223033 1 
150 1 30.103 7.4515 -3.33371 3.04785 5 
151 1 28.128 6.63459 -5.22055 0.015806 1 
152 1 28.5945 9.40316 -4.63791 0.0436392 1 
153 1 27.3348 7.76553 -2.6451 4.69916 5 
154 1 27.9664 10.509 -2.05566 5.27016 5 
155 1 25.8395 9.67799 -3.98512 0.0955777 1 
156 1 26.2724 12.4142 -3.3838 0.122131 1 
157 1 25.2557 10.6846 -1.34179 1.64341 5 
158 1 23.5713 12.7057 -2.68387 0.43293 1 
159 1 24.0371 15.5485 -2.1085 5.14931 5 
160 1 -18.1703 17.7297 -0.0228149 8.81525 5 
161 1 21.3249 15.7389 -1.59965 6.86097 5 
162 1 21.3596 19.1468 -1.42614 6.1965 5 
163 1 18.431 19.0103 -0.922467 0.823421 1 
164 1 18.3805 21.791 -0.207285 2.33299 5 
165 1 30.0909 0.788833 -6.99979 0.00665955 1 
166 1 29.2656 1.93265 -4.48768 0.0993909 1 
167 1 27.3095 1.07901 -6.37534 0.0108317 1 
168 1 27.7154 3.8761 -5.79561 0.0202231 1 
169 1 26.5302 2.26341 -3.82227 0.188408 1 
170 1 26.9307 4.9905 -3.15811 0.213884 1 
171 1 24.9588 4.15089 -5.16726 0.03305 1 
172 1 25.3792 6.89757 -4.5795 0.0302177 1 
173 1 24.1411 5.17305 -2.61065 0.14602 1 
174 1 24.5241 7.96569 -2.07945 4.94859 5 
175 1 22.6008 7.1473 -3.99699 0.0682554 1 
176 1 23.1016 9.9452 -3.38214 0.216481 1 
177 1 21.7254 8.16465 -1.54617 11.3232 5 
178 1 22.4425 10.7949 -0.80643 6.50716 5 
179 1 20.3268 10.2345 -2.81886 5.52587 5 
180 1 20.7766 12.9812 -2.12904 4.59852 5 
181 1 17.9961 13.2877 -1.48884 5.72176 5 
182 1 18.5071 15.9944 -1.33471 11.3535 5 
183 1 15.5194 18.7844 -0.416839 7.01871 5 
184 1 24.5459 1.35899 -5.74836 0.0173427 1 
185 1 23.7472 2.47815 -3.25144 0.158373 1 
186 1 21.749 1.62883 -5.13337 0.014492 1 
187 1 22.1642 4.41595 -4.56042 0.046682 1 
188 1 20.9269 2.74944 -2.69251 2.90297 5 
189 1 21.2708 5.45001 -2.02368 4.75393 5 
190 1 19.3322 4.70679 -3.88312 0.222362 1 
191 1 19.7783 7.45338 -3.3327 3.04217 5 
192 1 18.5296 6.0768 -1.16213 5.98327 5 
193 1 17.0097 7.76658 -2.64445 4.69899 5 
194 1 17.6416 10.5101 -2.05504 5.27131 5 
195 1 14.9305 10.6851 -1.34154 1.64328 5 
196 1 12.8065 17.7336 -0.0221168 8.81696 5 
197 1 20.4748 0.00777814 -3.16839 1.28972 5 
198 1 18.9406 1.93401 -4.48721 0.0991365 1 
199 1 17.7044 0.346231 -2.57981 1.70606 5 
200 1 18.276 3.17972 -1.78214 1.70793 5 
201 1 16.2051 2.26423 -3.8219 0.188301 1 
202 1 16.6055 4.99143 -3.15763 0.213393 1 
203 1 15.4288 3.22646 -1.20166 0.966774 1 
204 1 15.6734 6.10578 -0.599406 5.50037 5 
205 1 13.8156 5.17343 -2.61009 0.145911 1 
206 1 14.1985 7.96602 -2.0789 4.94753 5 
207 1 11.399 8.16475 -1.54548 11.3104 5 
208 1 12.117 10.7963 -0.80646 6.51606 5 
209 1 14.9388 0.533361 -2.02899 1.25593 5 
210 1 13.4219 2.47843 -3.25117 0.158374 1 
211 1 12.1802 0.753609 -1.45049 6.87103 5 
212 1 12.4947 3.3829 -0.690004 6.51983 5 
213 1 10.6016 2.74907 -2.69241 2.90837 5 
214 1 10.9451 5.44977 -2.02351 4.75342 5 
215 1 8.20347 6.0761 -1.16162 5.96696 5 
216 1 10.1494 0.00743777 -3.16816 1.29233 5 
217 1 9.9759 1.86793 -0.198573 10.4587 5 
218 1 7.37873 0.34526 -2.57986 1.7102 5 
219 1 7.95061 3.17879 -1.78232 1.71022 5 
220 1 5.10358 3.22462 -1.20195 0.965997 1 
221 1 5.34652 6.10355 -0.598753 5.48899 5 
222 1 4.6129 0.531677 -2.02931 1.25841 5 
223 1 1.85404 0.751298 -1.451 6.87275 5 
224 1 2.16971 3.37973 -0.690332 6.50361 5 
225 1 -42.7251 57.0421 -0.911893 5.18237 5 
226 1 -41.784 59.7064 -0.339354 1.72333 5 
227 1 -40.9858 49.5097 -0.796062 6.07134 5 
228 1 -43.2039 51.3876 -2.0886 1.10296 5 
229 1 -43.0505 54.2009 -1.39044 0.687565 1 
230 1 -46.0071 54.3252 -0.848831 6.09031 5 
231 1 -41.6581 42.6917 -4.09201 0.972179 1 
232 1 -42.6922 44.0367 -1.89593 6.39563 5 
233 1 -42.3152 46.9008 -1.47537 6.21737 5 
234 1 -44.1626 45.8846 -3.38335 0.279316 1 
235 1 -43.7447 48.7149 -2.90715 2.06259 5 
236 1 -45.0804 46.8973 -1.02403 11.3304 5 
237 1 -43.7499 49.2991 -0.255826 7.72435 5 
238 1 -46.474 48.962 -2.34274 7.20319 5 
239 1 -46.1087 51.6089 -1.58196 7.90943 5 
240 1 -48.6436 52.8786 -0.393936 6.08511 5 
241 1 -1.12992 37.1766 -5.165 0.0378267 1 
242 1 -0.711906 39.9387 -4.57467 0.118713 1 
243 1 -1.88455 38.1958 -2.58485 1.94501 5 
244 1 -1.53423 40.9454 -1.97471 6.36345 5 
245 1 -3.51317 40.1886 -3.89307 0.263681 1 
246 1 -3.1893 42.956 -3.65566 0.56467 1 
247 1 -4.2478 41.4643 -1.29602 8.97614 5 
248 1 -45.6004 44.2443 -1.47472 10.3933 5 
249 1 -6.03025 43.4604 -3.33572 3.42239 5 
250 1 -47.052 46.2376 -2.76436 5.50228 5 
251 1 -7.05675 45.3365 -0.413478 6.66673 5 
252 1 -8.5107 46.8489 -2.00419 6.45989 5 
253 1 -48.561 50.135 -1.0664 10.8721 5 
254 1 -9.99814 49.5188 -0.789276 6.11262 5 
255 1 -0.465834 29.6637 -5.08819 0.0446457 1 
256 1 -2.01732 31.6481 -6.35049 0.0429068 1 
257 1 -1.54994 34.3971 -5.76518 0.021665 1 
258 1 -2.7592 32.6943 -3.73432 1.2101 5 
259 1 -2.28478 35.4433 -3.24919 1.71363 5 
260 1 -4.31034 34.6675 -5.0912 0.0718523 1 
261 1 -3.92367 37.4469 -4.4287 0.177235 1 
262 1 -4.91632 35.6903 -2.39891 1.7815 5 
263 1 -4.68991 38.5639 -1.66542 2.63724 5 
264 1 -6.6339 37.7035 -3.74601 0.429782 1 
265 1 -6.22108 40.5266 -3.23453 1.79744 5 
266 1 -7.54086 38.3501 -1.08887 3.07722 5 
267 1 -6.83426 42.4942 -1.01887 11.5484 5 
268 1 -8.91253 40.7059 -2.58412 6.63135 5 
269 1 -8.70582 44.0116 -2.47948 1.94506 5 
270 1 -9.88456 42.3666 -0.739669 7.25331 5 
271 1 -9.97889 45.0599 0.0132627 1.91388 5 
272 1 -11.7061 44.0702 -1.90886 5.90231 5 
273 1 -11.3255 46.9154 -1.4783 6.35901 5 
274 1 -14.0852 46.9033 -1.03369 11.44 5 
275 1 -12.761 49.2891 -0.253777 7.8472 5 
276 1 -0.468839 22.9931 -8.67028 0.00492534 1 
277 1 -1.30834 24.1292 -6.20652 0.0121842 1 
278 1 -0.881705 26.9124 -5.6656 0.0110716 1 
279 1 -2.85832 26.0948 -7.52734 0.00409448 1 
280 1 -2.44416 28.8832 -6.95586 0.00995401 1 
281 1 -3.66733 27.2099 -5.01273 0.0553683 1 
282 1 -3.26169 29.9501 -4.38364 0.0697229 1 
283 1 -5.22225 29.1613 -6.31585 0.0162739 1 
284 1 -4.77398 31.9102 -5.7215 0.0157677 1 
285 1 -6.00591 30.1897 -3.7441 0.137637 1 
286 1 -5.56536 32.9565 -3.20644 5.24253 5 
287 1 -7.54428 32.1742 -5.1061 0.0707201 1 
288 1 -7.03991 34.9626 -4.46535 0.218191 1 
289 1 -8.34747 33.1774 -2.65512 9.12834 5 
290 1 -7.71518 35.7472 -1.8658 6.1771 5 
291 1 -9.83321 35.2573 -3.88214 5.555 5 
292 1 -9.42423 37.979 -3.17097 4.61762 5 
293 1 -10.3118 37.3999 -0.537541 7.19043 5 
294 1 -12.206 38.3773 -2.4163 3.48371 5 
295 1 -11.9391 41.1393 -2.0469 7.53038 5 
296 1 -14.6268 41.4739 -1.26639 6.96381 5 
297 1 -14.629 44.2648 -1.48759 10.491 5 
298 1 -17.3908 45.3302 -0.425933 6.4413 5 
299 1 -1.22846 17.3997 -9.62245 0.00269631 1 
300 1 -0.850267 20.1881 -9.15316 0.00415614 1 
301 1 -2.0415 18.4989 -7.13812 0.0134011 1 
302 1 -1.69402 21.3073 -6.69498 0.0195729 1 
303 1 -3.63995 20.4661 -8.54224 0.00821496 1 
304 1 -3.25957 23.2838 -8.05929 0.00534277 1 
305 1 -4.46375 21.5961 -6.10191 0.0426645 1 
306 1 -4.08196 24.4102 -5.59016 0.0156231 1 
307 1 -6.05058 23.5736 -7.4316 0.00826568 1 
308 1 -5.64057 26.3809 -6.891 0.00600506 1 
309 1 -6.86231 24.6965 -4.95733 0.0496366 1 
310 1 -6.41118 27.4955 -4.36015 0.156544 1 
311 1 -8.41921 26.6714 -6.23705 0.0103322 1 
312 1 -8.00049 29.4488 -5.66317 0.0320925 1 
313 1 -9.23005 27.7868 -3.77494 2.24964 5 
314 1 -8.86356 30.4843 -3.10682 4.8294 5 
315 1 -10.818 29.7472 -4.97244 0.164486 1 
316 1 -10.3617 32.4947 -4.39834 2.50765 5 
317 1 -11.6183 31.0697 -2.28365 6.57305 5 
318 1 -10.2276 34.6662 -1.27385 11.056 5 
319 1 -13.1342 32.8045 -3.73868 4.76635 5 
320 1 -12.5168 35.5579 -3.08742 3.79653 5 
321 1 -12.8634 33.803 -1.04017 6.37062 5 
322 1 -15.2499 35.6971 -2.40575 1.54777 5 
323 1 -15.0597 38.5698 -1.67021 1.92501 5 
324 1 -17.8934 38.3417 -1.09189 2.85505 5 
325 1 -17.1995 42.4975 -1.04681 11.6226 5 
326 1 -20.2153 42.367 -0.745347 7.25613 5 
327 1 -20.3095 45.0582 0.00942166 1.88968 5 
328 1 -0.418415 9.94642 -9.20685 0.00385225 1 
329 1 -2.00973 11.8743 -10.5915 0.00185894 1 
330 1 -1.61327 14.6308 -10.0969 0.00249552 1 
331 1 -2.7838 12.9744 -8.04128 0.00684769 1 
332 1 -2.39967 15.7189 -7.58228 0.0117348 1 
333 1 -4.39202 14.903 -9.46525 0.00420598 1 
334 1 -4.01234 17.6712 -9 0.00485079 1 
335 1 -5.17766 15.985 -6.95468 0.0227511 1 
336 1 -4.81388 18.765 -6.53348 0.0409752 1 
337 1 -6.79901 17.951 -8.37119 0.00473968 1 
338 1 -6.4326 20.7457 -7.9096 0.0161185 1 
339 1 -7.61487 19.0403 -5.8836 0.160241 1 
340 1 -7.27968 21.9222 -5.47964 0.0701337 1 
341 1 -9.22105 21.0418 -7.27023 0.0306127 1 
342 1 -8.85007 23.8859 -6.77955 0.0233797 1 
343 1 -10.1094 22.2438 -4.84394 0.150107 1 
344 1 -9.67911 25.0446 -4.269 0.983448 5 
345 1 -11.6287 24.1713 -6.17468 0.0241862 1 
346 1 -11.2156 26.9808 -5.5847 0.0811001 1 
347 1 -12.4364 25.3817 -3.67592 1.2888 5 
348 1 -11.8968 28.1954 -2.87379 1.45282 5 
349 1 -13.9494 27.3036 -4.91894 0.173463 1 
350 1 -13.5455 30.0227 -4.26851 0.167449 1 
351 1 -14.749 28.2556 -2.2978 0.943057 1 
352 1 -14.4527 31.1271 -1.72884 5.97479 5 
353 1 -16.3296 30.2053 -3.7277 0.140345 1 
354 1 -15.9384 32.9985 -3.18688 5.09675 5 
355 1 -17.2593 31.1247 -1.27281 10.4901 5 
356 1 -15.6147 33.5561 -0.515338 6.03397 5 
357 1 -18.7161 33.1762 -2.66005 9.65 5 
358 1 -18.0692 35.7516 -1.88866 6.32286 5 
359 1 -20.6483 37.3985 -0.544328 7.14242 5 
360 1 -0.445013 3.26317 -12.822 0.000307155 1 
361 1 -1.24325 4.39349 -10.3031 0.000769133 1 
362 1 -0.833157 7.17786 -9.75361 0.00146637 1 
363 1 -2.8215 6.33559 -11.655 0.000795167 1 
364 1 -2.41433 9.11222 -11.1153 0.00157839 1 
365 1 -3.61006 7.46067 -9.11809 0.00209422 1 
366 1 -3.19207 10.2276 -8.56296 0.0052318 1 
367 1 -5.19058 9.39231 -10.4805 0.00210461 1 
368 1 -4.78503 12.1513 -9.95467 0.00253622 1 
369 1 -5.9637 10.5051 -7.92692 0.00624925 1 
370 1 -5.55669 13.2484 -7.4004 0.0102553 1 
371 1 -7.55975 12.4273 -9.32304 0.0027996 1 
372 1 -7.16914 15.1796 -8.83542 0.0046989 1 
373 1 -8.32478 13.5222 -6.77776 0.0208765 1 
374 1 -7.96189 16.2627 -6.32644 0.0517343 1 
375 1 -9.94621 15.4591 -8.20746 0.00688301 1 
376 1 -9.57863 18.2397 -7.74603 0.0123276 1 
377 1 -10.7367 16.5666 -5.71722 0.0825543 1 
378 1 -10.4562 19.3809 -5.29022 0.192475 1 
379 1 -12.3664 18.5222 -7.12163 0.0149156 1 
380 1 -12.0176 21.3393 -6.6689 0.0220444 1 
381 1 -13.1855 19.6646 -4.61707 0.227343 1 
382 1 -12.8633 22.5123 -4.20573 0.166078 1 
383 1 -14.7775 21.6244 -6.0827 0.049643 1 
384 1 -14.3826 24.4545 -5.55419 0.037098 1 
385 1 -15.6529 22.7397 -3.66832 0.23977 1 
386 1 -15.1993 25.5676 -3.12453 1.0107 5 
387 1 -17.1815 24.7088 -4.95251 0.0584193 1 
388 1 -16.735 27.5152 -4.34841 0.152801 1 
389 1 -17.9512 25.7873 -2.54185 6.73449 5 
390 1 -17.6912 28.4167 -1.78694 6.39031 5 
391 1 -19.5589 27.7898 -3.77433 2.27659 5 
392 1 -19.1968 30.4838 -3.11795 4.8323 5 
393 1 -20.3641 29.6242 -0.657635 6.43462 5 
394 1 -21.943 31.0724 -2.28774 6.57378 5 
395 1 -20.5713 34.6731 -1.28005 11.0769 5 
396 1 -23.1956 33.7978 -1.04792 6.40664 5 
397 1 40.4585 0.465546 -13.3491 0.000254955 1 
398 1 -1.64581 1.59598 -10.8421 0.000723559 1 
399 1 37.6768 0.74722 -12.7233 0.000341195 1 
400 1 -3.22566 3.54578 -12.1939 0.000422665 1 
401 1 36.8745 1.87974 -10.2181 0.00095932 1 
402 1 -4.02305 4.67718 -9.67418 0.00103348 1 
403 1 35.295 3.82783 -11.5657 0.000528364 1 
404 1 -5.60058 6.61698 -11.0239 0.00100482 1 
405 1 34.4984 4.95731 -9.04564 0.00125294 1 
406 1 -6.38564 7.73934 -8.48688 0.00296333 1 
407 1 32.9213 6.8973 -10.39 0.0010623 1 
408 1 -7.96774 9.67037 -9.84578 0.00251002 1 
409 1 32.1379 8.01587 -7.84957 0.00350416 1 
410 1 -8.73639 10.7808 -7.29334 0.0100838 1 
411 1 30.5565 9.95074 -9.20465 0.00380677 1 
412 1 -10.337 12.7043 -8.68616 0.00439182 1 
413 1 29.7961 11.0628 -6.63597 0.0159564 1 
414 1 -11.0813 13.8029 -6.13944 0.0336199 1 
415 1 -13.1089 12.9837 -8.03613 0.00672901 1 
416 1 -12.724 15.7331 -7.5743 0.0122713 1 
417 1 -13.8692 14.0822 -5.47302 0.0474183 1 
418 1 -13.4921 16.8312 -5.08536 0.0882661 1 
419 1 -15.499 15.9978 -6.94832 0.0237967 1 
420 1 -15.1307 18.7848 -6.5202 0.0438352 1 
421 1 -16.2951 17.0474 -4.49488 0.586144 1 
422 1 -15.9626 19.9786 -4.16265 0.444648 1 
423 1 -17.9338 19.0493 -5.8776 0.166306 1 
424 1 -17.5989 21.9349 -5.47179 0.0697116 1 
425 1 -18.8811 20.3214 -3.61271 1.44939 5 
426 1 -18.5391 23.0769 -2.97196 4.02552 5 
427 1 -20.4311 22.2499 -4.83988 0.150629 1 
428 1 -19.9995 25.0484 -4.26528 0.990351 5 
429 1 -21.2926 23.6174 -2.29455 5.87834 5 
430 1 -20.2384 26.7779 -1.34179 9.66288 5 
431 1 -22.7603 25.382 -3.67686 1.29987 5 
432 1 -22.2205 28.1949 -2.87458 1.44729 5 
433 1 -23.0563 26.324 -1.02701 3.50395 5 
434 1 -25.071 28.2527 -2.30057 0.949446 1 
435 1 -24.7746 31.1267 -1.73339 5.95971 5 
436 1 -27.5785 31.1232 -1.27643 10.41 5 
437 1 -25.9426 33.5548 -0.518269 6.04708 5 
438 1 34.894 1.02872 -12.0969 0.000395344 1 
439 1 34.0906 2.16196 -9.59185 0.0010769 1 
440 1 32.1113 1.31211 -11.4688 0.000504075 1 
441 1 32.5128 4.11061 -10.9341 0.000633669 1 
442 1 31.3069 2.44884 -8.95789 0.00197909 1 
443 1 31.715 5.23874 -8.40644 0.00145669 1 
444 1 29.7326 4.39543 -10.3024 0.000761104 1 
445 1 30.1424 7.18072 -9.75237 0.00144491 1 
446 1 28.9355 5.52533 -7.77099 0.00191171 1 
447 1 29.3593 8.301 -7.20119 0.00589606 1 
448 1 27.3665 7.46477 -9.11624 0.00208673 1 
449 1 27.7846 10.2338 -8.55976 0.00521351 1 
450 1 26.5886 8.58066 -6.55997 0.00595353 1 
451 1 27.0247 11.3425 -5.98373 0.0183112 1 
452 1 25.0144 10.5113 -7.92379 0.00626848 1 
453 1 25.4222 13.2572 -7.39587 0.0100702 1 
454 1 24.2608 11.6123 -5.3502 0.0316364 1 
455 1 24.6621 14.3318 -4.81935 0.123885 1 
456 1 22.6545 13.528 -6.77455 0.0204512 1 
457 1 23.0184 16.2701 -6.32246 0.0524721 1 
458 1 21.9731 14.621 -4.18641 0.223463 1 
459 1 22.1323 17.3705 -3.86184 1.28202 1 
460 1 20.2431 16.5701 -5.71472 0.0817615 1 
461 1 20.5232 19.3849 -5.28784 0.197708 1 
462 1 19.4965 17.7897 -3.19694 0.724095 1 
463 1 19.6397 20.7677 -2.75473 0.899104 5 
464 1 17.7933 19.6656 -4.61653 0.228007 1 
465 1 -23.1871 22.5134 -4.20555 0.164243 1 
466 1 16.7268 20.8305 -2.1867 0.964045 5 
467 1 -24.0857 23.6835 -1.80065 6.1029 5 
468 1 15.3237 22.7381 -3.66982 0.237235 1 
469 1 -25.524 25.565 -3.12752 1.01748 5 
470 1 14.4712 23.7132 -1.27714 8.14271 5 
471 1 -25.8605 26.1552 -0.483264 6.19795 5 
472 1 13.0255 25.7824 -2.54611 6.7311 5 
473 1 -28.0109 28.4094 -1.78766 6.45126 5 
474 1 10.6264 29.6282 -0.660966 6.5873 5 
475 1 29.3302 1.59733 -10.8416 0.000721605 1 
476 1 -125.168 148.255 -8.87327 0.00221278 1 
477 1 28.5251 2.738 -8.32853 0.00246318 1 
478 1 26.5489 1.88165 -10.2174 0.000956059 1 
479 1 26.9535 4.67995 -9.67308 0.00103098 1 
480 1 25.7458 3.02024 -7.70571 0.00296332 1 
481 1 26.1592 5.80696 -7.14029 0.00422002 1 
482 1 24.1735 4.96021 -9.04448 0.00124401 1 
483 1 24.5918 7.74353 -8.48503 0.00295743 1 
484 1 23.3854 6.07829 -6.51557 0.0083703 1 
485 1 23.8286 8.85032 -5.93347 0.011027 1 
486 1 21.8138 8.01922 -7.84802 0.00350077 1 
487 1 22.2423 10.7853 -7.29095 0.00995881 1 
488 1 21.06 9.12641 -5.30295 0.0229656 1 
489 1 21.5157 11.9044 -4.70998 0.0742718 1 
490 1 19.4724 11.0652 -6.63468 0.0158943 1 
491 1 19.8974 13.8059 -6.13793 0.0332212 1 
492 1 18.7217 12.1799 -4.06054 0.0882091 1 
493 1 19.223 14.9155 -3.66026 0.331944 1 
494 1 17.1086 14.0831 -5.47272 0.0469872 1 
495 1 17.487 16.8322 -5.0849 0.0881562 1 
496 1 16.3521 15.1428 -2.91514 7.05507 5 
497 1 16.6359 17.9107 -2.70262 6.49583 5 
498 1 14.6835 17.0465 -4.49603 0.584384 1 
499 1 15.0157 19.9773 -4.16397 0.443973 1 
500 1 13.7497 18.4094 -2.38773 11.6391 5 
501 1 13.8238 21.0658 -1.70847 5.84858 5 
502 1 12.0987 20.3183 -3.61693 1.46391 5 
503 1 12.4355 23.0738 -2.97599 4.06202 5 
504 1 10.9722 21.9944 -0.67432 5.32951 5 
505 1 12.7726 25.412 0.0806324 8.51031 5 
506 1 9.67386 23.6119 -2.29471 5.84364 5 
507 1 10.7387 26.7813 -1.34374 9.68209 5 
508 1 7.90589 26.3265 -1.03743 3.44521 5 
509 1 25.3412 0.212425 -8.25407 0.00301928 1 
510 1 23.7654 2.16403 -9.59109 0.00106792 1 
511 1 22.5566 0.495331 -7.626 0.00404766 1 
512 1 22.9672 3.29715 -7.07655 0.00342077 1 
513 1 20.9819 2.45068 -8.95718 0.0019803 1 
514 1 21.3904 5.24121 -8.40541 0.00146819 1 
515 1 20.1731 3.58724 -6.42699 0.00927949 1 
516 1 20.5881 6.36033 -5.86448 0.0116799 1 
517 1 18.6109 5.52699 -7.77018 0.00192272 1 
518 1 19.0351 8.30302 -7.20016 0.0058687 1 
519 1 17.8034 6.63596 -5.2198 0.0157694 1 
520 1 18.27 9.40459 -4.63715 0.043736 1 
521 1 16.2642 8.58147 -6.55938 0.00591921 1 
522 1 16.7005 11.3433 -5.98323 0.018263 1 
523 1 15.5146 9.67851 -3.98464 0.0956256 1 
524 1 15.9478 12.4148 -3.38349 0.1219 1 
525 1 13.9363 11.6119 -5.35025 0.0315705 1 
526 1 14.3374 14.3313 -4.81975 0.123526 1 
527 1 13.2463 12.705 -2.68449 0.42747 1 
528 1 13.7103 15.5478 -2.1098 5.13003 5 
529 1 11.6476 14.6191 -4.18704 0.220498 1 
530 1 11.8088 17.3682 -3.86309 1.28083 1 
531 1 10.9984 15.7407 -1.59969 6.84644 5 
532 1 11.0368 19.1491 -1.42743 6.20463 5 
533 1 9.17319 17.7835 -3.19427 0.730859 1 
534 1 9.32064 20.7629 -2.76409 0.867193 5 
535 1 8.10975 19.016 -0.923953 0.820336 1 
536 1 8.06775 21.8033 -0.219886 2.30694 5 
537 1 6.42079 20.8222 -2.20512 0.734873 5 
538 1 6.86149 23.6755 -1.79459 5.82958 5 
539 1 4.07552 23.7331 -1.27338 10.2379 5 
540 1 5.07792 26.1918 -0.507947 3.40426 5 
541 1 19.7659 0.790264 -6.99933 0.00667124 1 
542 1 -135.493 148.256 -8.87285 0.00221771 1 
543 1 18.2003 2.73933 -8.32793 0.00247154 1 
544 1 16.9845 1.07998 -6.37492 0.0108201 1 
545 1 17.3905 3.8773 -5.795 0.0202192 1 
546 1 15.421 3.0209 -7.70525 0.0029608 1 
547 1 15.8345 5.80772 -7.13973 0.00421248 1 
548 1 14.6338 4.15138 -5.16682 0.0330211 1 
549 1 15.0542 6.89808 -4.57895 0.0301188 1 
550 1 13.0606 6.07815 -6.51528 0.00832506 1 
551 1 13.5039 8.85003 -5.93327 0.010968 1 
552 1 12.2754 7.14706 -3.99654 0.0679487 1 
553 1 12.7764 9.94471 -3.38195 0.215371 1 
554 1 10.735 9.12508 -5.30332 0.0230438 1 
555 1 11.1908 11.9028 -4.71048 0.0739898 1 
556 1 10.0017 10.2335 -2.8194 5.52353 5 
557 1 10.4514 12.9809 -2.1292 4.5925 5 
558 1 8.39683 12.1773 -4.06162 0.0871723 1 
559 1 8.89739 14.9129 -3.65864 0.320958 1 
560 1 7.67071 13.2831 -1.48988 5.75846 5 
561 1 8.18246 15.9886 -1.32784 11.4367 5 
562 1 6.02916 15.1368 -2.91525 7.08262 5 
563 1 6.31215 17.9001 -2.69166 6.4475 5 
564 1 5.18626 18.8266 -0.420929 7.06236 5 
565 1 3.42657 18.3852 -2.38678 11.3563 5 
566 1 3.51388 21.0542 -1.72397 5.5665 5 
567 1 0.70309 21.916 -0.738179 5.018 5 
568 1 2.34552 25.5503 0.0166141 8.35174 5 
569 1 15.0162 0.21296 -8.25373 0.00302006 1 
570 1 14.2209 1.35938 -5.74802 0.0173369 1 
571 1 12.2316 0.495262 -7.6258 0.00405249 1 
572 1 12.6423 3.29706 -7.0763 0.00341688 1 
573 1 11.4238 1.62857 -5.13318 0.0145146 1 
574 1 11.839 4.41571 -4.56016 0.0467464 1 
575 1 9.8479 3.58637 -6.42692 0.00932916 1 
576 1 10.263 6.35926 -5.8645 0.011662 1 
577 1 9.00675 4.70583 -3.88308 0.222882 1 
578 1 9.45254 7.45229 -3.3327 3.05337 5 
579 1 7.4778 6.63395 -5.22004 0.0157986 1 
580 1 7.94473 9.40205 -4.63801 0.0440095 1 
581 1 6.68311 7.76446 -2.64435 4.69729 5 
582 1 7.31674 10.507 -2.05677 5.26867 5 
583 1 5.18848 9.6743 -3.98602 0.0968189 1 
584 1 5.62226 12.4099 -3.38482 0.122984 1 
585 1 4.60677 10.6801 -1.34274 1.63452 5 
586 1 2.91981 12.6967 -2.68579 0.424027 1 
587 1 3.38796 15.5324 -2.11061 5.1173 5 
588 1 2.49028 17.7312 -0.0104462 8.96857 5 
589 1 0.677415 15.7453 -1.60739 6.76736 5 
590 1 0.70849 19.0817 -1.45101 3.00811 5 
591 1 9.44076 0.789539 -6.99931 0.00666626 1 
592 1 8.61518 1.93309 -4.48716 0.099154 1 
593 1 6.65913 1.07861 -6.37518 0.0108083 1 
594 1 7.06513 3.87567 -5.79519 0.0202671 1 
595 1 5.87944 2.26262 -3.82225 0.188263 1 
596 1 6.2797 4.98972 -3.15755 0.214249 1 
597 1 4.30816 4.14907 -5.16726 0.0331436 1 
598 1 4.72814 6.89508 -4.57925 0.0302269 1 
599 1 3.48944 5.17072 -2.61004 0.146289 1 
600 1 3.87051 7.96264 -2.07847 4.94279 5 
601 1 1.94893 7.14308 -3.9973 0.0681228 1 
602 1 2.4495 9.9388 -3.38388 0.217676 1 
603 1 1.06961 8.15945 -1.54522 11.2789 5 
604 1 1.79489 10.788 -0.806997 6.49812 5 
605 1 0.124963 12.9783 -2.12829 4.60291 5 
606 1 3.89532 1.35746 -5.74859 0.01739 1 
607 1 3.09619 2.47614 -3.25175 0.158442 1 
608 1 1.09805 1.62631 -5.13406 0.0146212 1 
609 1 1.51311 4.41269 -4.56115 0.0470252 1 
610 1 0.275741 2.74624 -2.6933 2.91992 5 
611 1 0.618707 5.44572 -2.02448 4.74886 5 
612 1 41.1256 0.00548226 -3.16885 1.29613 5 
613 1 -43.4993 77.5373 -0.685379 6.48955 5 
614 1 -41.7863 69.091 -3.04701 0.412036 1 
615 1 -42.9806 70.1735 -0.584545 5.92631 5 
616 1 -44.3883 72.1757 -1.86726 5.63182 5 
617 1 -43.815 74.9059 -1.4447 6.87297 5 
618 1 -46.0173 76.0257 -0.192165 10.5002 5 
619 1 -42.4895 63.415 -3.74937 0.0989282 1 
620 1 -42.1104 66.1496 -3.3904 0.441345 1 
621 1 -43.1478 64.6226 -1.10344 4.33782 5 
622 1 -43.0254 67.5019 -1.25489 11.1179 5 
623 1 -44.9767 66.4495 -2.72834 1.30882 5 
624 1 -44.6843 69.4092 -2.51542 1.94969 5 
625 1 -45.6922 68.3259 -0.268491 6.76996 5 
626 1 -47.4534 69.8959 -1.63304 1.03177 5 
627 1 -47.1412 72.7499 -1.17491 6.0957 5 
628 1 -49.9482 72.8313 -0.659265 5.95166 5 
629 1 -41.7699 55.94 -3.4425 0.0970093 1 
630 1 -43.3097 57.8794 -4.83098 0.0157774 1 
631 1 -42.8862 60.6675 -4.27709 0.0297666 1 
632 1 -44.0545 58.9719 -2.31697 0.61314 5 
633 1 -43.6413 61.7156 -1.62853 0.55367 1 
634 1 -45.6327 60.956 -3.62406 0.0921507 1 
635 1 -45.1895 63.6732 -3.08025 0.187577 1 
636 1 -46.3935 61.9597 -0.959439 3.5041 5 
637 1 -47.8992 64.0076 -2.51975 0.366973 1 
638 1 -47.5876 66.9026 -2.04158 0.926979 5 
639 1 -48.6237 65.1189 -0.194051 11.4729 5 
640 1 -50.4636 67.0384 -1.56897 6.54144 5 
641 1 -50.3741 69.9713 -1.07175 0.837044 5 
642 1 -53.3045 70.1859 -0.588435 5.91165 5 
643 1 -41.7175 49.2737 -7.20322 0.0150995 1 
644 1 -42.4899 50.4545 -4.69215 0.184021 1 
645 1 -42.1129 53.1967 -3.99788 0.151937 1 
646 1 -44.0843 52.3731 -5.99406 0.0399354 1 
647 1 -43.713 55.1203 -5.3896 0.015819 1 
648 1 -44.8888 53.4085 -3.40745 0.211353 1 
649 1 -44.5652 56.1544 -2.83617 0.163519 1 
650 1 -46.4973 55.4022 -4.76168 0.0514868 1 
651 1 -46.0768 58.1484 -4.20183 0.0584308 1 
652 1 -47.417 56.4402 -2.18903 4.96268 5 
653 1 -46.76 59.2482 -1.74 6.10724 5 
654 1 -48.8511 58.4749 -3.51979 0.153388 1 
655 1 -48.388 61.2824 -2.98317 0.145203 1 
656 1 -49.3882 59.6676 -1.00091 5.63919 5 
657 1 -51.1822 61.529 -2.28447 0.309655 1 
658 1 -50.7863 64.2737 -1.79618 7.20384 5 
659 1 -53.4437 64.6751 -0.984935 5.00143 5 
660 1 -53.3538 67.5271 -1.26532 11.6111 5 
661 1 -56.0574 68.3614 -0.287599 6.67175 5 
662 1 -42.4956 43.5744 -8.13526 0.0152317 1 
663 1 -42.1119 46.4031 -7.7052 0.0279399 1 
664 1 -43.2854 44.6678 -5.68894 0.149985 1 
665 1 -42.9165 47.576 -5.29794 0.0832248 1 
666 1 -44.8807 46.6873 -7.10549 0.0300337 1 
667 1 -44.4803 49.5562 -6.58514 0.0205301 1 
668 1 -45.7026 47.8498 -4.71265 0.0970611 1 
669 1 -45.256 50.6979 -4.11061 0.195769 1 
670 1 -47.2679 49.8356 -5.97182 0.0201562 1 
671 1 -46.8651 52.6509 -5.39283 0.0694279 1 
672 1 -48.0735 50.9781 -3.56304 3.13033 5 
673 1 -47.726 53.6881 -2.89427 5.05638 5 
674 1 -49.7012 52.9489 -4.71109 0.136966 1 
675 1 -49.3117 55.7097 -4.09613 0.0862444 1 
676 1 -50.4843 54.1493 -2.0088 1.44002 5 
677 1 -50.1926 56.9407 -1.50329 5.63542 5 
678 1 -52.087 55.9675 -3.41606 0.102866 1 
679 1 -51.6344 58.7812 -2.86273 0.360547 1 
680 1 -53.0271 57.123 -0.894205 5.61537 5 
681 1 -54.3827 59.0158 -2.30137 1.03517 5 
682 1 -53.8897 61.7607 -1.48844 1.1057 1 
683 1 -56.7212 61.9524 -0.950206 3.65193 5 
684 1 -58.9616 65.1266 -0.197556 11.4359 5 
685 1 -0.367927 36.1074 -7.73081 0.00895794 1 
686 1 -1.974 38.0528 -9.08397 0.00681487 1 
687 1 -1.57943 40.8003 -8.58275 0.00721408 1 