ITEM: TIMESTEP
0
ITEM: NUMBER OF ATOMS
2886
ITEM: BOX BOUNDS xy xz yz pp pp ss
-6.7500000000000000e+00 3.6450000000000003e+01 -6.7500000000000000e+00
0.0000000000000000e+00 4.4221516256000001e+01 0.0000000000000000e+00
-8.6701623548861605e+01 8.9231865376895669e+01 0.0000000000000000e+00
ITEM: ATOMS id type x y z c_csym c_cna 
1 1 35.6847 0.33008 -3.39921 0.276986 1 
2 1 35.0099 3.97635 -6.68703 0.0452628 1 
3 1 -0.722718 5.94886 -4.70949 0.187482 1 
4 1 35.6644 3.10628 -4.16703 0.385586 1 
5 1 33.6769 4.76894 -2.98985 0.296212 1 
6 1 34.6101 6.57645 -1.11749 8.31599 5 
7 1 34.3232 3.7609 -0.290523 7.54374 5 
8 1 35.7011 1.10328 -12.316 9.31714e-05 1 
9 1 33.671 0.0471899 -10.5848 0.00078585 1 
10 1 34.3408 2.00465 -8.62802 0.00591588 1 
11 1 34.9987 1.15957 -6.00881 0.0548354 1 
12 1 32.3036 0.947736 -6.87021 0.0115705 1 
13 1 32.9494 2.88264 -4.9138 0.0761573 1 
14 1 32.9606 0.134334 -4.19349 0.0814617 1 
15 1 33.6252 2.05188 -2.28014 0.650913 1 
16 1 30.9078 1.87622 -2.99645 0.934268 1 
17 1 31.5368 3.86324 -1.13899 6.31478 5 
18 1 31.8393 1.25297 -0.156424 5.90715 5 
19 1 23.5689 44.1384 -5.06353 0.108629 1 
20 1 28.9519 1.50664 -0.860967 9.25157 5 
21 1 -1.87714 14.8234 -0.114243 7.75589 5 
22 1 -1.41101 9.54509 -7.98066 0.0028881 1 
23 1 -0.742985 11.5005 -5.97357 0.00876024 1 
24 1 -0.719767 8.72987 -5.29916 0.0493568 1 
25 1 33.7302 10.4567 -4.20411 5.53926 5 
26 1 34.4953 12.4831 -2.07999 3.82603 5 
27 1 32.9086 8.34305 -0.0289574 5.96101 5 
28 1 32.5025 10.9979 -0.951712 7.93488 5 
30 1 -0.746809 6.67174 -13.6809 3.95082e-05 1 
31 1 35.7025 3.88723 -12.9997 5.45803e-05 1 
32 1 33.6779 5.62027 -11.9524 0.000166929 1 
33 1 34.3578 7.58395 -9.97532 0.000609951 1 
34 1 34.3508 4.79757 -9.30535 0.00270723 1 
35 1 35.0394 6.76832 -7.32645 0.00751631 1 
36 1 32.3369 6.52556 -8.24847 0.00352396 1 
37 1 33.0369 8.49254 -6.26628 0.0369338 1 
38 1 33.0197 5.68965 -5.59501 0.0426126 1 
39 1 33.8022 7.64849 -3.60414 6.23412 5 
40 1 31.0189 7.3962 -4.63372 0.16256 1 
41 1 31.7199 9.26624 -2.76999 6.01875 5 
42 1 31.8259 6.57664 -2.00679 5.79289 5 
43 1 30.0724 8.40295 -0.777382 7.25887 5 
49 1 35.027 1.92868 -14.9737 1.68386e-05 1 
51 1 33.0017 3.65983 -13.9257 4.66148e-05 1 
52 1 33.0002 0.875663 -13.242 0.000100236 1 
53 1 33.6741 2.83378 -11.2719 0.000499152 1 
54 1 30.9754 2.60588 -12.1926 0.00014553 1 
55 1 31.651 4.56396 -10.2211 0.000671068 1 
56 1 31.6448 1.77737 -9.5333 0.00137173 1 
57 1 32.3158 3.73324 -7.56715 0.00762066 1 
58 1 29.6268 3.50713 -8.47504 0.00480376 1 
59 1 30.3076 5.46097 -6.52401 0.0205867 1 
60 1 30.2929 2.68778 -5.77824 0.0403581 1 
61 1 30.9628 4.63521 -3.83345 0.22981 1 
62 1 28.283 4.48772 -4.77238 0.149064 1 
63 1 29.0478 6.52267 -2.85997 5.62451 5 
64 1 28.8359 3.9232 -2.05541 6.25372 5 
65 1 28.2284 6.30491 -0.183792 7.57898 5 
66 1 25.4391 6.57833 -0.572824 12.8095 5 
68 1 30.3014 0.649576 -14.1668 4.22827e-05 1 
69 1 24.2243 44.0441 -11.5047 0.000236154 1 
70 1 21.5274 43.8203 -12.4313 0.000114894 1 
71 1 28.9529 1.55458 -10.453 0.000767935 1 
72 1 29.6305 0.732243 -7.77477 0.00884696 1 
73 1 26.9318 0.51348 -8.72615 0.00343708 1 
74 1 27.6201 2.47533 -6.71672 0.0401017 1 
75 1 20.8674 43.9249 -6.07893 0.0347908 1 
76 1 28.3508 1.68039 -3.9913 0.975184 5 
77 1 25.5921 1.41545 -5.05976 0.053399 1 
78 1 26.3227 3.37194 -3.15385 5.654 5 
79 1 26.3797 0.624685 -2.43798 3.55004 5 
80 1 20.3295 43.8947 0.0239268 9.42836 5 
81 1 24.2582 2.28436 -1.68519 9.01933 5 
82 1 23.5347 0.33008 -3.39921 0.276986 1 
83 1 17.5738 43.9479 -0.735803 5.17513 5 
84 1 -1.34562 19.956 -1.85253 0.800626 1 
85 1 -1.41867 15.098 -9.3291 0.00141035 1 
86 1 -0.743884 17.0486 -7.3542 0.00444227 1 
87 1 -0.747447 14.262 -6.64819 0.01529 1 
88 1 33.6742 16.0169 -5.6293 0.0283375 1 
89 1 -2.14016 17.9696 -3.6685 0.213332 1 
90 1 -2.09457 15.2484 -2.93844 0.75145 1 
91 1 -1.30415 17.3174 -1.05652 6.25167 5 
92 1 32.3262 16.9528 -1.72737 6.07728 5 
95 1 -0.746246 9.45559 -14.3589 3.023e-05 1 
96 1 33.6806 11.188 -13.3052 7.17358e-05 1 
97 1 34.3566 13.1459 -11.3199 0.000218267 1 
98 1 34.3583 10.3659 -10.6463 0.000431416 1 
99 1 -1.41722 12.322 -8.65341 0.0015519 1 
100 1 32.3377 12.0982 -9.59244 0.00282979 1 
101 1 33.0126 14.0517 -7.59703 0.00979712 1 
102 1 33.0311 11.2766 -6.91646 0.0367134 1 
103 1 33.6896 13.2463 -4.88613 0.16178 1 
104 1 30.9783 13.0091 -5.92904 0.0491791 1 
105 1 31.6192 15.0046 -3.98776 0.51811 1 
106 1 31.6619 12.1087 -3.35544 0.447292 1 
107 1 32.3017 14.0809 -1.58648 10.0537 5 
108 1 29.6106 13.7567 -2.23333 5.78923 5 
109 1 30.3762 15.0651 0.0886915 10.6357 5 
119 1 33.0031 6.44434 -14.6066 2.06659e-05 1 
120 1 33.6801 8.40522 -12.6297 8.02694e-05 1 
121 1 30.9796 8.17672 -13.5571 5.57273e-05 1 
122 1 31.6579 10.1384 -11.5794 0.000455343 1 
123 1 31.6569 7.35227 -10.9027 0.000425654 1 
124 1 32.3414 9.31703 -8.92427 0.00457251 1 
125 1 29.6298 9.08528 -9.86651 0.00192957 1 
126 1 30.3067 11.0497 -7.90356 0.0124765 1 
127 1 30.3093 8.25413 -7.23918 0.0175115 1 
128 1 30.9899 10.2066 -5.31444 0.116302 1 
129 1 28.2661 9.99502 -6.1859 0.0213564 1 
130 1 28.9423 11.9327 -4.24375 0.085667 1 
131 1 29.007 9.19101 -3.59117 0.336654 1 
132 1 29.6644 11.0005 -1.67265 7.08191 5 
133 1 26.9149 10.8847 -2.4294 5.51619 5 
134 1 27.7897 12.3558 -0.215805 7.72235 5 
152 1 30.3021 3.43267 -14.8508 2.20159e-05 1 
153 1 30.9778 5.39111 -12.8766 7.39084e-05 1 
154 1 28.278 5.16393 -13.8025 5.58211e-05 1 
155 1 28.954 7.12312 -11.8317 0.000239682 1 
156 1 28.953 4.33621 -11.1435 0.000505087 1 
157 1 29.6306 6.29387 -9.18062 0.00192548 1 
158 1 26.9295 6.07269 -10.1028 0.000689916 1 
159 1 27.6002 8.03534 -8.14086 0.0052007 1 
160 1 27.6093 5.25369 -7.44619 0.0072162 1 
161 1 28.2836 7.23223 -5.50296 0.0527033 1 
162 1 25.5954 6.99847 -6.38014 0.022722 1 
163 1 26.2556 8.9667 -4.39219 0.146992 1 
164 1 26.2881 6.24128 -3.65615 4.2196 5 
165 1 27.2234 8.31696 -1.69588 8.02781 5 
166 1 24.3087 8.0351 -2.54643 4.42243 5 
167 1 23.0191 10.0638 -0.630562 7.99697 5 
179 1 28.2775 2.38034 -13.1175 7.56619e-05 1 
180 1 25.5776 2.15514 -14.046 1.95001e-05 1 
181 1 26.2538 4.11276 -12.071 0.000188766 1 
182 1 26.2533 1.33113 -11.3862 0.000202965 1 
183 1 26.9326 3.2887 -9.40607 0.00286256 1 
184 1 24.2282 3.06371 -10.3447 0.000620325 1 
185 1 24.908 5.03171 -8.37612 0.004346 1 
186 1 24.9053 2.2459 -7.6924 0.00783488 1 
187 1 25.5927 4.23169 -5.73028 0.0689531 1 
188 1 22.8599 3.97635 -6.68703 0.0452628 1 
189 1 23.5773 5.94886 -4.70949 0.187482 1 
190 1 23.5144 3.10628 -4.16703 0.385586 1 
191 1 24.253 4.92315 -2.2419 6.38042 5 
192 1 21.5269 4.76894 -2.98985 0.296212 1 
193 1 22.4601 6.57645 -1.11749 8.31599 5 
194 1 22.1732 3.7609 -0.290523 7.54374 5 
196 1 23.5511 1.10328 -12.316 9.31714e-05 1 
197 1 24.2244 0.278603 -9.66093 0.000810133 1 
198 1 21.521 0.0471899 -10.5848 0.00078585 1 
199 1 22.1908 2.00465 -8.62802 0.00591588 1 
200 1 22.8487 1.15957 -6.00881 0.0548354 1 
201 1 20.1536 0.947736 -6.87021 0.0115705 1 
202 1 20.7994 2.88264 -4.9138 0.0761573 1 
203 1 20.8106 0.134334 -4.19349 0.0814617 1 
204 1 21.4752 2.05188 -2.28014 0.650913 1 
205 1 18.7578 1.87622 -2.99645 0.934268 1 
206 1 19.3868 3.86324 -1.13899 6.31478 5 
207 1 19.6893 1.25297 -0.156424 5.90715 5 
208 1 11.4189 44.1384 -5.06353 0.108629 1 
209 1 16.8019 1.50664 -0.860967 9.25157 5 
210 1 -1.35234 25.4827 -3.15385 5.654 5 
211 1 -2.23586 28.6891 -0.572824 12.8095 5 
212 1 -0.595534 21.784 0.0239268 9.42836 5 
213 1 -1.42225 20.6599 -10.7007 0.000290322 1 
214 1 -0.743191 22.6242 -8.72615 0.00343708 1 
215 1 -0.745979 19.836 -8.04315 0.00212105 1 
216 1 -2.77691 21.5622 -7.01906 0.00608082 1 
217 1 -2.08293 23.5262 -5.05976 0.053399 1 
218 1 -2.09979 20.7507 -4.39833 0.0700437 1 
219 1 -1.29528 22.7354 -2.43798 3.55004 5 
220 1 32.3097 22.4408 -3.39921 0.276986 1 
221 1 -3.41676 24.3951 -1.68519 9.01933 5 
222 1 33.0988 21.8371 -0.735803 5.17513 5 
226 1 33.6792 16.7481 -14.659 2.79595e-05 1 
227 1 -2.09652 18.7035 -12.6783 5.92802e-05 1 
228 1 -2.09482 15.9242 -11.9965 0.000160448 1 
229 1 -1.42053 17.8783 -10.0157 0.00036013 1 
230 1 32.3265 17.6525 -10.948 0.000250549 1 
231 1 32.9961 19.6043 -8.97403 0.00195938 1 
232 1 33.0001 16.829 -8.28853 0.00196956 1 
233 1 -2.78731 18.7791 -6.32065 0.0158659 1 
234 1 30.9651 18.5527 -7.21563 0.0116784 1 
235 1 31.6306 20.5004 -5.26572 0.0283563 1 
236 1 31.6355 17.7564 -4.50708 0.120087 1 
237 1 32.3434 19.7536 -2.56053 0.323698 1 
238 1 29.612 19.5144 -3.48607 0.223643 1 
239 1 30.3276 21.5333 -1.47676 5.36872 5 
240 1 30.2743 18.9266 -0.845141 10.6095 5 
251 1 33.6801 13.9687 -13.981 4.14763e-05 1 
252 1 30.9796 13.7419 -14.9107 2.87407e-05 1 
253 1 31.6543 15.6985 -12.9286 7.32896e-05 1 
254 1 31.6565 12.9199 -12.2527 0.000214658 1 
255 1 32.3315 14.8756 -10.2671 0.000625478 1 
256 1 29.6278 14.6519 -11.2007 0.000525211 1 
257 1 30.2979 16.6073 -9.21379 0.00217704 1 
258 1 30.3028 13.8336 -8.55245 0.00484168 1 
259 1 30.9651 15.7968 -6.56642 0.0350541 1 
260 1 28.2713 15.5574 -7.46925 0.00673375 1 
261 1 28.9607 17.49 -5.42156 0.0825295 1 
262 1 28.9338 14.7107 -4.81673 0.0553826 1 
263 1 29.6693 16.5989 -2.69257 1.0954 5 
264 1 26.9438 16.3619 -3.71291 0.127269 1 
265 1 27.7129 18.2946 -1.80664 6.30853 5 
266 1 27.6089 15.295 -1.059 1.36361 5 
285 1 30.98 10.9606 -14.2345 5.58227e-05 1 
287 1 28.9539 12.6931 -13.1835 0.000156842 1 
288 1 28.954 9.91005 -12.5104 0.000250275 1 
289 1 29.6292 11.8723 -10.5344 0.00130017 1 
290 1 26.9268 11.6434 -11.4557 0.000349865 1 
291 1 27.5994 13.6035 -9.47131 0.00137759 1 
292 1 27.5972 10.8198 -8.81175 0.00223198 1 
293 1 28.267 12.7782 -6.8353 0.0103855 1 
294 1 25.5716 12.5469 -7.73314 0.00294033 1 
295 1 26.2488 14.4768 -5.72472 0.0182859 1 
296 1 26.2314 11.7146 -5.07693 0.0257859 1 
297 1 26.8918 13.5747 -3.04047 0.319003 1 
298 1 24.2206 13.4245 -3.94322 0.174361 1 
299 1 24.8396 15.256 -1.94416 1.18991 5 
300 1 24.9675 12.3846 -1.04697 6.12923 5 
301 1 22.4229 14.8234 -0.114243 7.75589 5 
328 1 28.2785 7.94911 -14.4846 3.94376e-05 1 
330 1 26.2531 9.6827 -13.4344 9.92424e-05 1 
331 1 26.2532 6.8977 -12.7561 0.000102436 1 
332 1 26.9268 8.85869 -10.7844 0.00063004 1 
333 1 24.229 8.63262 -11.7039 0.000152582 1 
334 1 24.9022 10.5921 -9.72131 0.000620207 1 
335 1 24.9064 7.81128 -9.0478 0.00148146 1 
336 1 25.5722 9.76917 -7.06124 0.00518035 1 
337 1 22.889 9.54509 -7.98066 0.0028881 1 
338 1 23.557 11.5005 -5.97357 0.00876024 1 
339 1 23.5802 8.72987 -5.29916 0.0493568 1 
340 1 24.2009 10.6744 -3.25064 2.99634 5 
341 1 21.5802 10.4567 -4.20411 5.53926 5 
342 1 22.3453 12.4831 -2.07999 3.82603 5 
343 1 20.7586 8.34305 -0.0289574 5.96101 5 
344 1 20.3525 10.9979 -0.951712 7.93488 5 
366 1 25.5779 4.9383 -14.7291 1.89375e-05 1 
368 1 23.5532 6.67174 -13.6809 3.95082e-05 1 
369 1 23.5525 3.88723 -12.9997 5.45803e-05 1 
370 1 24.2292 5.84888 -11.0273 0.000314363 1 
371 1 21.5279 5.62027 -11.9524 0.000166929 1 
372 1 22.2078 7.58395 -9.97532 0.000609951 1 
373 1 22.2008 4.79757 -9.30535 0.00270723 1 
374 1 22.8894 6.76832 -7.32645 0.00751631 1 
375 1 20.1869 6.52556 -8.24847 0.00352396 1 
376 1 20.8869 8.49254 -6.26628 0.0369338 1 
377 1 20.8697 5.68965 -5.59501 0.0426126 1 
378 1 21.6522 7.64849 -3.60414 6.23412 5 
379 1 18.8689 7.3962 -4.63372 0.16256 1 
380 1 19.5699 9.26624 -2.76999 6.01875 5 
381 1 19.6759 6.57664 -2.00679 5.79289 5 
382 1 17.9224 8.40295 -0.777382 7.25887 5 
392 1 22.877 1.92868 -14.9737 1.68386e-05 1 
394 1 20.8517 3.65983 -13.9257 4.66148e-05 1 
395 1 20.8502 0.875663 -13.242 0.000100236 1 
396 1 21.5241 2.83378 -11.2719 0.000499152 1 
397 1 18.8254 2.60588 -12.1926 0.00014553 1 
398 1 19.501 4.56396 -10.2211 0.000671068 1 
399 1 19.4948 1.77737 -9.5333 0.00137173 1 
400 1 20.1658 3.73324 -7.56715 0.00762066 1 
401 1 17.4768 3.50713 -8.47504 0.00480376 1 
402 1 18.1576 5.46097 -6.52401 0.0205867 1 
403 1 18.1429 2.68778 -5.77824 0.0403581 1 
404 1 18.8128 4.63521 -3.83345 0.22981 1 
405 1 16.133 4.48772 -4.77238 0.149064 1 
406 1 16.8978 6.52267 -2.85997 5.62451 5 
407 1 16.6859 3.9232 -2.05541 6.25372 5 
408 1 16.0784 6.30491 -0.183792 7.57898 5 
409 1 13.2891 6.57833 -0.572824 12.8095 5 
411 1 18.1514 0.649576 -14.1668 4.22827e-05 1 
412 1 12.0743 44.0441 -11.5047 0.000236154 1 
413 1 9.37741 43.8203 -12.4313 0.000114894 1 
414 1 16.8029 1.55458 -10.453 0.000767935 1 
415 1 17.4805 0.732243 -7.77477 0.00884696 1 
416 1 14.7818 0.51348 -8.72615 0.00343708 1 
417 1 15.4701 2.47533 -6.71672 0.0401017 1 
418 1 8.71735 43.9249 -6.07893 0.0347908 1 
419 1 16.2008 1.68039 -3.9913 0.975184 5 
420 1 13.4421 1.41545 -5.05976 0.053399 1 
421 1 14.1727 3.37194 -3.15385 5.654 5 
422 1 14.2297 0.624685 -2.43798 3.55004 5 
423 1 8.17947 43.8947 0.0239268 9.42836 5 
424 1 12.1082 2.28436 -1.68519 9.01933 5 
425 1 11.3847 0.33008 -3.39921 0.276986 1 
426 1 5.42382 43.9479 -0.735803 5.17513 5 
427 1 -1.41942 31.0775 -4.39219 0.146992 1 
428 1 -0.760051 32.9954 -2.4294 5.51619 5 
429 1 -0.451604 30.4277 -1.69588 8.02781 5 
430 1 -4.65593 32.1745 -0.630562 7.99697 5 
431 1 -1.42117 26.2235 -12.071 0.000188766 1 
432 1 -0.745488 28.1835 -10.1028 0.000689916 1 
433 1 -0.742409 25.3995 -9.40607 0.00286256 1 
434 1 -2.76701 27.1425 -8.37612 0.004346 1 
435 1 -2.07958 29.1092 -6.38014 0.022722 1 
436 1 -2.0823 26.3424 -5.73028 0.0689531 1 
437 1 -1.38691 28.352 -3.65615 4.2196 5 
438 1 -4.09772 28.0596 -4.70949 0.187482 1 
439 1 -3.36629 30.1459 -2.54643 4.42243 5 
440 1 -3.42203 27.0339 -2.2419 6.38042 5 
441 1 31.2351 28.6872 -1.11749 8.31599 5 
446 1 -2.09741 24.2659 -14.046 1.95001e-05 1 
447 1 -2.09754 21.4839 -13.3618 3.97822e-05 1 
448 1 -1.42168 23.4419 -11.3862 0.000202965 1 
449 1 32.3261 23.214 -12.316 9.31714e-05 1 
450 1 -3.44681 25.1745 -10.3447 0.000620325 1 
451 1 32.9994 22.3894 -9.66093 0.000810133 1 
452 1 -2.76972 24.3567 -7.6924 0.00783488 1 
453 1 30.9658 24.1154 -8.62802 0.00591588 1 
454 1 31.6349 26.0871 -6.68703 0.0452628 1 
455 1 31.6237 23.2703 -6.00881 0.0548354 1 
456 1 32.2894 25.217 -4.16703 0.385586 1 
457 1 29.5744 24.9934 -4.9138 0.0761573 1 
458 1 30.3019 26.8797 -2.98985 0.296212 1 
459 1 30.2502 24.1626 -2.28014 0.650913 1 
460 1 30.9482 25.8717 -0.290523 7.54374 5 
461 1 28.1618 25.974 -1.13899 6.31478 5 
474 1 31.6517 21.2572 -14.2905 3.55028e-05 1 
475 1 31.6524 18.4771 -13.6082 4.22393e-05 1 
476 1 32.325 20.4315 -11.6311 0.000225252 1 
477 1 29.6248 20.2046 -12.5561 0.000227648 1 
478 1 30.296 22.1579 -10.5848 0.00078585 1 
479 1 30.2959 19.3772 -9.89149 0.00153864 1 
480 1 30.9619 21.3252 -7.92916 0.00535726 1 
481 1 28.2696 21.1051 -8.83773 0.00140935 1 
482 1 28.9286 23.0585 -6.87021 0.0115705 1 
483 1 28.9381 20.2803 -6.16139 0.0108398 1 
484 1 29.5856 22.2451 -4.19349 0.0814617 1 
485 1 26.9439 22.0277 -5.06353 0.108629 1 
486 1 27.5328 23.987 -2.99645 0.934268 1 
487 1 27.6083 21.2803 -2.23629 4.97148 5 
488 1 28.4643 23.3637 -0.156424 5.90715 5 
489 1 25.5769 23.6174 -0.860967 9.25157 5 
510 1 28.9522 18.251 -14.5356 3.94656e-05 1 
511 1 28.9531 15.4726 -13.8576 6.98027e-05 1 
512 1 29.6258 17.4276 -11.8744 0.000228739 1 
513 1 26.9274 17.2014 -12.8001 0.000101146 1 
514 1 27.6009 19.1533 -10.8133 0.000875211 1 
515 1 27.6008 16.3792 -10.135 0.000648239 1 
516 1 28.2762 18.3256 -8.1318 0.00724955 1 
517 1 25.582 18.1044 -9.0731 0.00224647 1 
518 1 26.2575 20.0631 -7.08758 0.00990422 1 
519 1 26.2635 17.2743 -6.38825 0.024632 1 
520 1 26.9499 19.2339 -4.39958 0.159573 1 
521 1 24.2233 19.0064 -5.40079 0.0412557 1 
522 1 24.9442 20.9793 -3.47653 1.1738 5 
523 1 24.9314 18.0492 -2.84585 0.559213 1 
524 1 25.6205 19.9095 -1.04452 9.19507 5 
525 1 22.9544 19.956 -1.85253 0.800626 1 
14245 2 17.8604 41.3904 0.125524 7.1248 5 
554 1 26.2534 15.2457 -14.7844 3.06473e-05 1 
555 1 26.2534 12.4655 -14.1091 6.00029e-05 1 
556 1 26.9275 14.424 -12.1256 0.000177105 1 
557 1 24.2292 14.1959 -13.0519 6.77251e-05 1 
558 1 24.9042 16.1512 -11.0636 0.000376402 1 
559 1 24.9028 13.3734 -10.3913 0.000382671 1 
560 1 25.5777 15.3253 -8.39328 0.00287942 1 
561 1 22.8813 15.098 -9.3291 0.00141035 1 
562 1 23.5561 17.0486 -7.3542 0.00444227 1 
563 1 23.5526 14.262 -6.64819 0.01529 1 
564 1 24.2224 16.1853 -4.70042 0.0782605 1 
565 1 21.5242 16.0169 -5.6293 0.0283375 1 
566 1 22.1598 17.9696 -3.6685 0.213332 1 
567 1 22.2054 15.2484 -2.93844 0.75145 1 
568 1 22.9959 17.3174 -1.05652 6.25167 5 
569 1 20.1762 16.9528 -1.72737 6.07728 5 
607 1 23.5538 9.45559 -14.3589 3.023e-05 1 
608 1 24.229 11.4154 -12.378 9.82948e-05 1 
609 1 21.5306 11.188 -13.3052 7.17358e-05 1 
610 1 22.2066 13.1459 -11.3199 0.000218267 1 
611 1 22.2083 10.3659 -10.6463 0.000431416 1 
612 1 22.8828 12.322 -8.65341 0.0015519 1 
613 1 20.1877 12.0982 -9.59244 0.00282979 1 
614 1 20.8626 14.0517 -7.59703 0.00979712 1 
615 1 20.8811 11.2766 -6.91646 0.0367134 1 
616 1 21.5396 13.2463 -4.88613 0.16178 1 
617 1 18.8283 13.0091 -5.92904 0.0491791 1 
618 1 19.4692 15.0046 -3.98776 0.51811 1 
619 1 19.5119 12.1087 -3.35544 0.447292 1 
620 1 20.1517 14.0809 -1.58648 10.0537 5 
621 1 17.4606 13.7567 -2.23333 5.78923 5 
622 1 18.2262 15.0651 0.0886915 10.6357 5 
659 1 20.8531 6.44434 -14.6066 2.06659e-05 1 
660 1 21.5301 8.40522 -12.6297 8.02694e-05 1 
661 1 18.8296 8.17672 -13.5571 5.57273e-05 1 
662 1 19.5079 10.1384 -11.5794 0.000455343 1 
663 1 19.5069 7.35227 -10.9027 0.000425654 1 
664 1 20.1914 9.31703 -8.92427 0.00457251 1 
665 1 17.4798 9.08528 -9.86651 0.00192957 1 
666 1 18.1567 11.0497 -7.90356 0.0124765 1 
667 1 18.1593 8.25413 -7.23918 0.0175115 1 
668 1 18.8399 10.2066 -5.31444 0.116302 1 
669 1 16.1161 9.99502 -6.1859 0.0213564 1 
670 1 16.7923 11.9327 -4.24375 0.085667 1 
671 1 16.857 9.19101 -3.59117 0.336654 1 
672 1 17.5144 11.0005 -1.67265 7.08191 5 
673 1 14.7649 10.8847 -2.4294 5.51619 5 
674 1 15.6397 12.3558 -0.215805 7.72235 5 
699 1 18.1521 3.43267 -14.8508 2.20159e-05 1 
700 1 18.8278 5.39111 -12.8766 7.39084e-05 1 
701 1 16.128 5.16393 -13.8025 5.58211e-05 1 
702 1 16.804 7.12312 -11.8317 0.000239682 1 
703 1 16.803 4.33621 -11.1435 0.000505087 1 
704 1 17.4806 6.29387 -9.18062 0.00192548 1 
705 1 14.7795 6.07269 -10.1028 0.000689916 1 
706 1 15.4502 8.03534 -8.14086 0.0052007 1 
707 1 15.4593 5.25369 -7.44619 0.0072162 1 
708 1 16.1336 7.23223 -5.50296 0.0527033 1 
709 1 13.4454 6.99847 -6.38014 0.022722 1 
710 1 14.1056 8.9667 -4.39219 0.146992 1 
711 1 14.1381 6.24128 -3.65615 4.2196 5 
712 1 15.0734 8.31696 -1.69588 8.02781 5 
713 1 12.1587 8.0351 -2.54643 4.42243 5 
714 1 10.8691 10.0638 -0.630562 7.99697 5 
726 1 16.1275 2.38034 -13.1175 7.56619e-05 1 
727 1 13.4276 2.15514 -14.046 1.95001e-05 1 
728 1 14.1038 4.11276 -12.071 0.000188766 1 
729 1 14.1033 1.33113 -11.3862 0.000202965 1 
730 1 14.7826 3.2887 -9.40607 0.00286256 1 
731 1 12.0782 3.06371 -10.3447 0.000620325 1 
732 1 12.758 5.03171 -8.37612 0.004346 1 
733 1 12.7553 2.2459 -7.6924 0.00783488 1 
734 1 13.4427 4.23169 -5.73028 0.0689531 1 
735 1 10.7099 3.97635 -6.68703 0.0452628 1 
736 1 11.4273 5.94886 -4.70949 0.187482 1 
737 1 11.3644 3.10628 -4.16703 0.385586 1 
738 1 12.103 4.92315 -2.2419 6.38042 5 
739 1 9.37693 4.76894 -2.98985 0.296212 1 
740 1 10.3101 6.57645 -1.11749 8.31599 5 
741 1 10.0232 3.7609 -0.290523 7.54374 5 
743 1 11.4011 1.10328 -12.316 9.31714e-05 1 
744 1 12.0744 0.278603 -9.66093 0.000810133 1 
745 1 9.37105 0.0471899 -10.5848 0.00078585 1 
746 1 10.0408 2.00465 -8.62802 0.00591588 1 
747 1 10.6987 1.15957 -6.00881 0.0548354 1 
748 1 8.00364 0.947736 -6.87021 0.0115705 1 
749 1 8.64939 2.88264 -4.9138 0.0761573 1 
750 1 8.66064 0.134334 -4.19349 0.0814617 1 
751 1 9.32522 2.05188 -2.28014 0.650913 1 
752 1 6.60781 1.87622 -2.99645 0.934268 1 
753 1 7.23677 3.86324 -1.13899 6.31478 5 
754 1 7.53926 1.25297 -0.156424 5.90715 5 
755 1 -0.731107 44.1384 -5.06353 0.108629 1 
756 1 4.65194 1.50664 -0.860967 9.25157 5 
757 1 -1.42622 36.5876 -5.72472 0.0182859 1 
758 1 -0.73123 38.4726 -3.71291 0.127269 1 
759 1 -0.783181 35.6855 -3.04047 0.319003 1 
760 1 -2.83538 37.3668 -1.94416 1.18991 5 
761 1 -1.42194 31.7935 -13.4344 9.92424e-05 1 
762 1 -0.748199 33.7542 -11.4557 0.000349865 1 
763 1 -0.748186 30.9694 -10.7844 0.00063004 1 
764 1 -2.77284 32.7029 -9.72131 0.000620207 1 
765 1 -2.10339 34.6577 -7.73314 0.00294033 1 
766 1 -2.10281 31.8799 -7.06124 0.00518035 1 
767 1 -1.44361 33.8253 -5.07693 0.0257859 1 
768 1 -4.11798 33.6112 -5.97357 0.00876024 1 
769 1 -3.45439 35.5352 -3.94322 0.174361 1 
770 1 -3.47414 32.7852 -3.25064 2.99634 5 
771 1 -2.70745 34.4954 -1.04697 6.12923 5 
772 1 31.1203 34.5939 -2.07999 3.82603 5 
773 1 -5.25214 36.9342 -0.114243 7.75589 5 
779 1 -2.09709 27.0491 -14.7291 1.89375e-05 1 
780 1 -1.4218 29.0085 -12.7561 0.000102436 1 
781 1 -4.12181 28.7825 -13.6809 3.95082e-05 1 
782 1 -3.44595 30.7434 -11.7039 0.000152582 1 
783 1 -3.44582 27.9596 -11.0273 0.000314363 1 
784 1 -2.76864 29.922 -9.0478 0.00148146 1 
785 1 30.9828 29.6947 -9.97532 0.000609951 1 
786 1 -4.78601 31.6559 -7.98066 0.0028881 1 
787 1 31.6644 28.8791 -7.32645 0.00751631 1 
788 1 -4.09477 30.8406 -5.29916 0.0493568 1 
789 1 29.6619 30.6033 -6.26628 0.0369338 1 
790 1 30.3552 32.5675 -4.20411 5.53926 5 
791 1 30.4272 29.7592 -3.60414 6.23412 5 
792 1 29.5336 30.4538 -0.0289574 5.96101 5 
793 1 28.3449 31.377 -2.76999 6.01875 5 
794 1 29.1275 33.1087 -0.951712 7.93488 5 
808 1 31.652 24.0394 -14.9737 1.68386e-05 1 
809 1 32.3275 25.998 -12.9997 5.45803e-05 1 
810 1 29.6267 25.7706 -13.9257 4.66148e-05 1 
811 1 30.3029 27.731 -11.9524 0.000166929 1 
812 1 30.2991 24.9445 -11.2719 0.000499152 1 
813 1 30.9758 26.9083 -9.30535 0.00270723 1 
814 1 28.276 26.6747 -10.2211 0.000671068 1 
815 1 28.9619 28.6363 -8.24847 0.00352396 1 
816 1 28.9408 25.844 -7.56715 0.00762066 1 
817 1 29.6447 27.8004 -5.59501 0.0426126 1 
818 1 26.9326 27.5717 -6.52401 0.0205867 1 
819 1 27.6439 29.507 -4.63372 0.16256 1 
820 1 27.5878 26.746 -3.83345 0.22981 1 
821 1 28.4509 28.6874 -2.00679 5.79289 5 
822 1 25.6728 28.6334 -2.85997 5.62451 5 
823 1 26.6974 30.5137 -0.777382 7.25887 5 
824 1 24.8534 28.4157 -0.183792 7.57898 5 
847 1 29.6252 22.9864 -13.242 0.000100236 1 
848 1 26.9264 22.7603 -14.1668 4.22827e-05 1 
849 1 27.6004 24.7166 -12.1926 0.00014553 1 
850 1 27.5993 21.9333 -11.5047 0.000236154 1 
851 1 28.2698 23.8881 -9.5333 0.00137173 1 
852 1 25.5779 23.6653 -10.453 0.000767935 1 
853 1 26.2518 25.6179 -8.47504 0.00480376 1 
854 1 26.2555 22.843 -7.77477 0.00884696 1 
855 1 26.9179 24.7985 -5.77824 0.0403581 1 
856 1 24.2451 24.5861 -6.71672 0.0401017 1 
857 1 24.908 26.5985 -4.77238 0.149064 1 
858 1 24.9758 23.7911 -3.9913 0.975184 5 
859 1 25.4609 26.034 -2.05541 6.25372 5 
860 1 22.9477 25.4827 -3.15385 5.654 5 
861 1 22.0641 28.6891 -0.572824 12.8095 5 
862 1 23.7045 21.784 0.0239268 9.42836 5 
893 1 26.9268 19.9793 -13.4814 0.000122684 1 
894 1 24.2281 19.754 -14.4101 5.00443e-05 1 
895 1 24.9024 21.7095 -12.4313 0.000114894 1 
896 1 24.9039 18.9295 -11.7449 0.000299463 1 
897 1 25.5784 20.8855 -9.764 0.00100577 1 
898 1 22.8778 20.6599 -10.7007 0.000290322 1 
899 1 23.5568 22.6242 -8.72615 0.00343708 1 
900 1 23.554 19.836 -8.04315 0.00212105 1 
901 1 24.2424 21.8142 -6.07893 0.0347908 1 
902 1 21.5231 21.5622 -7.01906 0.00608082 1 
903 1 22.2171 23.5262 -5.05976 0.053399 1 
904 1 22.2002 20.7507 -4.39833 0.0700437 1 
905 1 23.0047 22.7354 -2.43798 3.55004 5 
906 1 20.1597 22.4408 -3.39921 0.276986 1 
907 1 20.8832 24.3951 -1.68519 9.01933 5 
908 1 20.9488 21.8371 -0.735803 5.17513 5 
947 1 24.2289 16.9748 -13.7288 6.70507e-05 1 
948 1 21.5292 16.7481 -14.659 2.79595e-05 1 
949 1 22.2035 18.7035 -12.6783 5.92802e-05 1 
950 1 22.2052 15.9242 -11.9965 0.000160448 1 
951 1 22.8795 17.8783 -10.0157 0.00036013 1 
952 1 20.1765 17.6525 -10.948 0.000250549 1 
953 1 20.8461 19.6043 -8.97403 0.00195938 1 
954 1 20.8501 16.829 -8.28853 0.00196956 1 
955 1 21.5127 18.7791 -6.32065 0.0158659 1 
956 1 18.8151 18.5527 -7.21563 0.0116784 1 
957 1 19.4806 20.5004 -5.26572 0.0283563 1 
958 1 19.4855 17.7564 -4.50708 0.120087 1 
959 1 20.1934 19.7536 -2.56053 0.323698 1 
960 1 17.462 19.5144 -3.48607 0.223643 1 
961 1 18.1776 21.5333 -1.47676 5.36872 5 
962 1 18.1243 18.9266 -0.845141 10.6095 5 
1009 1 21.5301 13.9687 -13.981 4.14763e-05 1 
1010 1 18.8296 13.7419 -14.9107 2.87407e-05 1 
1011 1 19.5043 15.6985 -12.9286 7.32896e-05 1 
1012 1 19.5065 12.9199 -12.2527 0.000214658 1 
1013 1 20.1815 14.8756 -10.2671 0.000625478 1 
1014 1 17.4778 14.6519 -11.2007 0.000525211 1 
1015 1 18.1479 16.6073 -9.21379 0.00217704 1 
1016 1 18.1528 13.8336 -8.55245 0.00484168 1 
1017 1 18.8151 15.7968 -6.56642 0.0350541 1 
1018 1 16.1213 15.5574 -7.46925 0.00673375 1 
1019 1 16.8107 17.49 -5.42156 0.0825295 1 
1020 1 16.7838 14.7107 -4.81673 0.0553826 1 
1021 1 17.5193 16.5989 -2.69257 1.0954 5 
1022 1 14.7938 16.3619 -3.71291 0.127269 1 
1023 1 15.5629 18.2946 -1.80664 6.30853 5 
1024 1 15.4589 15.295 -1.059 1.36361 5 
1074 1 18.83 10.9606 -14.2345 5.58227e-05 1 
1076 1 16.8039 12.6931 -13.1835 0.000156842 1 
1077 1 16.804 9.91005 -12.5104 0.000250275 1 
1078 1 17.4792 11.8723 -10.5344 0.00130017 1 
1079 1 14.7768 11.6434 -11.4557 0.000349865 1 
1080 1 15.4494 13.6035 -9.47131 0.00137759 1 
1081 1 15.4472 10.8198 -8.81175 0.00223198 1 
1082 1 16.117 12.7782 -6.8353 0.0103855 1 
1083 1 13.4216 12.5469 -7.73314 0.00294033 1 
1084 1 14.0988 14.4768 -5.72472 0.0182859 1 
1085 1 14.0814 11.7146 -5.07693 0.0257859 1 
1086 1 14.7418 13.5747 -3.04047 0.319003 1 
1087 1 12.0706 13.4245 -3.94322 0.174361 1 
1088 1 12.6896 15.256 -1.94416 1.18991 5 
1089 1 12.8175 12.3846 -1.04697 6.12923 5 
1090 1 10.2729 14.8234 -0.114243 7.75589 5 
1128 1 16.1285 7.94911 -14.4846 3.94376e-05 1 
1130 1 14.1031 9.6827 -13.4344 9.92424e-05 1 
1131 1 14.1032 6.8977 -12.7561 0.000102436 1 
1132 1 14.7768 8.85869 -10.7844 0.00063004 1 
1133 1 12.079 8.63262 -11.7039 0.000152582 1 
1134 1 12.7522 10.5921 -9.72131 0.000620207 1 
1135 1 12.7564 7.81128 -9.0478 0.00148146 1 
1136 1 13.4222 9.76917 -7.06124 0.00518035 1 
1137 1 10.739 9.54509 -7.98066 0.0028881 1 
1138 1 11.407 11.5005 -5.97357 0.00876024 1 
1139 1 11.4302 8.72987 -5.29916 0.0493568 1 
1140 1 12.0509 10.6744 -3.25064 2.99634 5 
1141 1 9.43016 10.4567 -4.20411 5.53926 5 
1142 1 10.1953 12.4831 -2.07999 3.82603 5 
1143 1 8.60856 8.34305 -0.0289574 5.96101 5 
1144 1 8.2025 10.9979 -0.951712 7.93488 5 
1166 1 13.4279 4.9383 -14.7291 1.89375e-05 1 
1168 1 11.4032 6.67174 -13.6809 3.95082e-05 1 
1169 1 11.4025 3.88723 -12.9997 5.45803e-05 1 
1170 1 12.0792 5.84888 -11.0273 0.000314363 1 
1171 1 9.37787 5.62027 -11.9524 0.000166929 1 
1172 1 10.0578 7.58395 -9.97532 0.000609951 1 
1173 1 10.0508 4.79757 -9.30535 0.00270723 1 
1174 1 10.7394 6.76832 -7.32645 0.00751631 1 
1175 1 8.03688 6.52556 -8.24847 0.00352396 1 
1176 1 8.73688 8.49254 -6.26628 0.0369338 1 
1177 1 8.71966 5.68965 -5.59501 0.0426126 1 
1178 1 9.50224 7.64849 -3.60414 6.23412 5 
1179 1 6.71893 7.3962 -4.63372 0.16256 1 
1180 1 7.41987 9.26624 -2.76999 6.01875 5 
1181 1 7.52586 6.57664 -2.00679 5.79289 5 
1182 1 5.77243 8.40295 -0.777382 7.25887 5 
1192 1 10.727 1.92868 -14.9737 1.68386e-05 1 
1194 1 8.70168 3.65983 -13.9257 4.66148e-05 1 
1195 1 8.70024 0.875663 -13.242 0.000100236 1 
1196 1 9.3741 2.83378 -11.2719 0.000499152 1 
1197 1 6.67544 2.60588 -12.1926 0.00014553 1 
1198 1 7.35097 4.56396 -10.2211 0.000671068 1 
1199 1 7.34478 1.77737 -9.5333 0.00137173 1 
1200 1 8.01576 3.73324 -7.56715 0.00762066 1 
1201 1 5.32676 3.50713 -8.47504 0.00480376 1 
1202 1 6.00761 5.46097 -6.52401 0.0205867 1 
1203 1 5.99292 2.68778 -5.77824 0.0403581 1 
1204 1 6.66276 4.63521 -3.83345 0.22981 1 
1205 1 3.98299 4.48772 -4.77238 0.149064 1 
1206 1 4.74775 6.52267 -2.85997 5.62451 5 
1207 1 4.53593 3.9232 -2.05541 6.25372 5 
1208 1 3.92839 6.30491 -0.183792 7.57898 5 
1209 1 1.13914 6.57833 -0.572824 12.8095 5 
1211 1 6.00142 0.649576 -14.1668 4.22827e-05 1 
1212 1 -0.075738 44.0441 -11.5047 0.000236154 1 
1213 1 -2.77259 43.8203 -12.4313 0.000114894 1 
1214 1 4.6529 1.55458 -10.453 0.000767935 1 
1215 1 5.33051 0.732243 -7.77477 0.00884696 1 
1216 1 2.63181 0.51348 -8.72615 0.00343708 1 
1217 1 3.32008 2.47533 -6.71672 0.0401017 1 
1218 1 -3.43265 43.9249 -6.07893 0.0347908 1 
1219 1 4.05075 1.68039 -3.9913 0.975184 5 
1220 1 1.29207 1.41545 -5.05976 0.053399 1 
1221 1 2.02266 3.37194 -3.15385 5.654 5 
1222 1 2.07972 0.624685 -2.43798 3.55004 5 
1223 1 -3.97053 43.8947 0.0239268 9.42836 5 
1224 1 -0.0417639 2.28436 -1.68519 9.01933 5 
1225 1 29.7238 43.9479 -0.735803 5.17513 5 
1226 1 -1.41745 42.1739 -7.08758 0.00990422 1 
1227 1 -0.725101 41.3447 -4.39958 0.159573 1 
1228 1 -2.7308 43.0901 -3.47653 1.1738 5 
1229 1 -2.05452 42.0203 -1.04452 9.19507 5 
1230 1 -1.42161 37.3564 -14.7844 3.06473e-05 1 
1231 1 -0.747618 39.3122 -12.8001 0.000101146 1 
1232 1 -0.74751 36.5348 -12.1256 0.000177105 1 
1233 1 -2.77082 38.262 -11.0636 0.000376402 1 
1234 1 -2.09303 40.2151 -9.0731 0.00224647 1 
1235 1 -2.0973 37.4361 -8.39328 0.00287942 1 
1236 1 -1.41146 39.3851 -6.38825 0.024632 1 
1237 1 -4.11888 39.1593 -7.3542 0.00444227 1 
1238 1 -3.4517 41.1172 -5.40079 0.0412557 1 
1239 1 -3.45256 38.296 -4.70042 0.0782605 1 
1240 1 -2.74358 40.16 -2.84585 0.559213 1 
1241 1 -5.51516 40.0804 -3.6685 0.213332 1 
1242 1 -4.72062 42.0668 -1.85253 0.800626 1 
1243 1 -4.67915 39.4281 -1.05652 6.25167 5 
1250 1 -1.42162 34.5762 -14.1091 6.00029e-05 1 
1252 1 -3.44583 36.3067 -13.0519 6.77251e-05 1 
1253 1 -3.44603 33.5262 -12.378 9.82948e-05 1 
1254 1 -2.77218 35.4841 -10.3913 0.000382671 1 
1255 1 30.9816 35.2566 -11.3199 0.000218267 1 
1256 1 -4.79367 37.2087 -9.3291 0.00141035 1 
1257 1 -4.79222 34.4327 -8.65341 0.0015519 1 
1258 1 -4.12245 36.3728 -6.64819 0.01529 1 
1259 1 29.6376 36.1624 -7.59703 0.00979712 1 
1260 1 30.2992 38.1276 -5.6293 0.0283375 1 
1261 1 30.3146 35.357 -4.88613 0.16178 1 
1262 1 -5.46957 37.3591 -2.93844 0.75145 1 
1263 1 28.2442 37.1154 -3.98776 0.51811 1 
1264 1 28.9512 39.0635 -1.72737 6.07728 5 
1265 1 28.9267 36.1917 -1.58648 10.0537 5 
1266 1 27.0012 37.1758 0.0886915 10.6357 5 