ITEM: TIMESTEP
0
ITEM: NUMBER OF ATOMS
20819
ITEM: BOX BOUNDS xy xz yz pp pp ss
-6.1287621098999999e+01 1.2257524219800000e+02 -6.1287621098999999e+01
0.0000000000000000e+00 9.5239605732000001e+01 0.0000000000000000e+00
-1.0431474451810853e+02 1.1233103146562031e+02 0.0000000000000000e+00
ITEM: ATOMS id type x y z c_csym c_cna 
1 1 -61.0586 95.2266 -0.729845 9.66704 5 
2 1 0.832777 2.73358 -0.54226 5.49627 5 
3 1 2.49987 1.01362 -1.85802 2.75528 5 
4 1 3.57354 3.37417 0.378945 5.10903 5 
5 1 6.61093 0.598132 -1.24185 8.63409 5 
6 1 8.28779 2.68583 0.136383 9.39788 5 
7 1 10.1655 0.201571 -0.840695 9.86082 5 
8 1 -46.8307 95.0872 -0.532981 11.0004 5 
9 1 0.854613 2.16051 -6.35064 0.0133055 1 
10 1 2.86201 0.434853 -7.49637 0.00444645 1 
11 1 2.62328 0.703397 -4.68828 0.0513606 1 
12 1 4.88281 1.82085 -5.97182 0.0110615 1 
13 1 6.88549 0.0902724 -7.08258 0.00259948 1 
14 1 6.65588 0.361331 -4.24261 0.0900253 1 
15 1 8.8967 1.45572 -5.5558 0.0174066 1 
16 1 -50.6478 95.2363 -3.76285 0.129363 1 
17 1 12.8923 1.09005 -5.1148 0.0259034 1 
18 1 16.9303 0.735222 -4.70551 0.0290538 1 
19 1 20.9496 0.399488 -4.30277 0.0230216 1 
20 1 -36.3526 95.2065 -3.84849 0.439323 1 
21 1 0.651455 2.41437 -3.4565 0.288573 1 
22 1 0.875434 5.27389 -3.67576 0.0931311 1 
23 1 2.87414 3.53823 -4.87187 0.0623209 1 
24 1 2.75084 3.93361 -2.09015 5.14148 5 
25 1 4.68621 2.0667 -3.121 6.1579 5 
26 1 4.89241 4.97575 -3.40585 0.744041 1 
27 1 6.8673 3.20282 -4.44787 0.261246 1 
28 1 6.21204 3.54382 -1.3752 7.64594 5 
29 1 8.58857 1.77584 -2.7006 0.840154 1 
30 1 8.70311 4.52204 -2.86447 1.49426 5 
31 1 10.8886 2.82379 -4.07819 0.147993 1 
32 1 10.6946 2.97843 -1.33695 8.99703 5 
33 1 12.621 1.26536 -2.23093 4.90945 5 
34 1 12.8921 4.175 -2.4868 1.6753 5 
35 1 14.9053 2.44392 -3.68504 0.144879 1 
36 1 14.7386 2.66515 -0.992908 10.4286 5 
37 1 16.6927 0.955109 -1.8703 1.42888 5 
38 1 16.9284 3.84732 -2.15162 0.256493 1 
39 1 18.9502 2.1023 -3.14648 0.155557 1 
40 1 18.4823 2.3602 -0.21354 6.16023 5 
41 1 20.7641 0.656503 -1.39753 1.18236 5 
42 1 20.8844 3.49767 -1.69251 0.497452 1 
43 1 22.9595 1.74669 -2.71793 0.117494 1 
44 1 22.6913 2.1602 0.13732 7.36716 5 
45 1 24.5853 0.291709 -0.886743 8.40146 5 
46 1 24.9942 3.0743 -1.22423 6.54669 5 
47 1 26.9154 1.45683 -2.55287 5.60853 5 
48 1 27.1958 0.59637 -0.0625292 10.4233 5 
49 1 28.8609 2.85782 -0.930935 11.4447 5 
50 1 30.8476 1.15404 -2.05739 8.58382 5 
51 1 32.9141 2.76493 -0.603524 11.787 5 
52 1 34.8625 0.736362 -1.47613 6.31307 5 
53 1 36.9741 2.42174 -0.286752 9.32761 5 
54 1 38.9596 0.494989 -1.3932 5.04406 5 
55 1 43.0881 0.296209 -1.26205 8.26996 5 
56 1 0.635467 5.53199 -0.652388 7.21673 5 
57 1 0.976989 8.3921 -1.10396 8.00609 5 
58 1 2.90144 6.71617 -2.17459 6.53712 5 
59 1 4.8105 5.71989 -0.25886 10.1738 5 
60 1 4.87635 8.38316 -0.877028 9.77558 5 
61 1 6.79293 6.47435 -2.01378 6.17733 5 
62 1 7.89402 5.37225 0.155536 9.07671 5 
63 1 8.81906 7.85592 -0.594267 9.99099 5 
64 1 10.6869 5.91378 -1.64868 7.75051 5 
65 1 12.6499 6.80971 0.00308313 5.33067 5 
66 1 14.8361 5.53803 -0.990339 7.52817 5 
67 1 18.7991 5.28762 -0.594775 6.67822 5 
68 1 23.06 4.98212 0.184766 8.90434 5 
69 1 25.7882 4.40941 0.981053 7.9249 5 
70 1 1.37341 1.62716 -12.0463 0.000199796 1 
71 1 -57.9072 95.142 -13.1555 0.000118589 1 
72 1 3.11766 0.167263 -10.3222 0.000599493 1 
73 1 5.39148 1.28406 -11.6496 0.000171877 1 
74 1 -54.1482 95.0623 -9.91803 0.000371883 1 
75 1 9.41036 0.936071 -11.241 0.000182783 1 
76 1 13.4241 0.585595 -10.8255 0.000159631 1 
77 1 17.4351 0.234735 -10.4163 0.000246833 1 
78 1 -39.8412 95.1239 -10.0148 0.000367779 1 
79 1 1.11031 1.89232 -9.2033 0.0011517 1 
80 1 1.37367 4.73363 -9.42612 0.00145321 1 
81 1 3.38145 3.00945 -10.5431 0.000355287 1 
82 1 3.11896 3.27595 -7.70415 0.00283325 1 
83 1 5.1325 1.55093 -8.81243 0.00104503 1 
84 1 5.38877 4.38942 -9.04243 0.0010578 1 
85 1 7.40132 2.66271 -10.1393 0.000503309 1 
86 1 7.14056 2.92839 -7.29267 0.00482687 1 
87 1 9.14996 1.19906 -8.40055 0.00100224 1 
88 1 9.40657 4.03605 -8.63013 0.00159969 1 
89 1 11.4185 2.3099 -9.72855 0.000240811 1 
90 1 11.156 2.56756 -6.89061 0.0041371 1 
91 1 13.1618 0.842942 -7.97544 0.00130841 1 
92 1 13.4241 3.67974 -8.21236 0.000973688 1 
93 1 15.4299 1.95607 -9.31361 0.000189093 1 
94 1 15.1678 2.20593 -6.47411 0.00730295 1 
95 1 17.1761 0.490593 -7.56504 0.00213229 1 
96 1 17.4344 3.32364 -7.79896 0.000927958 1 
97 1 19.4407 1.60491 -8.9005 0.00101109 1 
98 1 19.1844 1.85664 -6.03672 0.00879745 1 
99 1 21.1862 0.139969 -7.16526 0.00267688 1 
100 1 21.4459 2.96776 -7.38728 0.00199598 1 
101 1 23.4517 1.24987 -8.49832 0.00261017 1 
102 1 23.1948 1.4888 -5.62802 0.021973 1 
103 1 -36.0864 95.0148 -6.75237 0.0283254 1 
104 1 25.4434 2.61584 -7.00403 0.00383496 1 
105 1 27.4635 0.900294 -8.11705 0.00227687 1 
106 1 27.1872 1.1396 -5.29951 0.0486361 1 
107 1 29.4616 2.27515 -6.62722 0.00393345 1 
108 1 31.4823 0.559004 -7.71591 0.00166589 1 
109 1 31.2299 0.811145 -4.87778 0.0396368 1 
110 1 33.4732 1.9398 -6.23304 0.0057007 1 
111 1 35.4884 0.22241 -7.30864 0.00604628 1 
112 1 35.2016 0.484002 -4.44541 0.074262 1 
113 1 37.4834 1.60773 -5.84985 0.0103128 1 
114 1 -21.7688 95.1245 -6.92261 0.00285962 1 
115 1 39.2324 0.154576 -4.12891 0.0339879 1 
116 1 41.5334 1.27227 -5.44707 0.0555936 1 
117 1 -17.9628 95.0104 -3.79767 0.58896 1 
118 1 45.593 0.932556 -4.98276 0.0574866 1 
119 1 49.588 0.574583 -4.54848 0.091548 1 
120 1 53.5771 0.226634 -4.07826 0.0128818 1 
121 1 -3.65208 95.1203 -3.75576 0.174783 1 
122 1 1.11491 5.00092 -6.56261 0.00959871 1 
123 1 1.37091 7.84062 -6.82676 0.00322256 1 
124 1 3.3741 6.1193 -7.9321 0.00324672 1 
125 1 3.10579 6.39724 -5.07325 0.0432189 1 
126 1 5.12005 4.66259 -6.21259 0.0120944 1 
127 1 5.3778 7.51251 -6.46776 0.0135696 1 
128 1 7.39263 5.76646 -7.55331 0.00475211 1 
129 1 7.11907 6.04547 -4.74971 0.103082 1 
130 1 9.13014 4.29767 -5.77872 0.0528477 1 
131 1 9.3937 7.13982 -6.07522 0.0264926 1 
132 1 11.4127 5.40271 -7.13341 0.0053967 1 
133 1 11.1281 5.64548 -4.32443 0.135895 1 
134 1 13.1575 3.93356 -5.36025 0.0209478 1 
135 1 13.4065 6.77054 -5.60359 0.00914618 1 
136 1 15.4233 5.04683 -6.69352 0.00153425 1 
137 1 15.1421 5.30626 -3.84781 0.017578 1 
138 1 17.1787 3.57127 -4.95548 0.0192007 1 
139 1 17.4068 6.41716 -5.16425 0.0113621 1 
140 1 19.4292 4.6871 -6.28878 0.00807731 1 
141 1 19.1449 4.95909 -3.44566 0.102689 1 
142 1 21.1884 3.21922 -4.52662 0.019315 1 
143 1 21.4411 6.03916 -4.83486 0.0981173 1 
144 1 23.4422 4.32796 -5.87733 0.0152352 1 
145 1 23.2045 4.54408 -2.97833 0.283466 1 
146 1 25.1568 2.8519 -4.15515 0.0781191 1 
147 1 25.4248 5.69813 -4.39405 0.0177557 1 
148 1 27.4284 3.98843 -5.50597 0.0136595 1 
149 1 27.1466 4.25941 -2.66147 1.88108 5 
150 1 29.1823 2.53058 -3.81925 0.0561644 1 
151 1 29.4237 5.38752 -4.08623 0.100783 1 
152 1 31.4482 3.66196 -5.14575 0.0156245 1 
153 1 31.1427 3.96061 -2.33825 0.923611 5 
154 1 33.1788 2.18805 -3.40696 0.183662 1 
155 1 33.4563 5.06354 -3.75118 0.235907 1 
156 1 35.4523 3.32733 -4.76972 0.0211908 1 
157 1 35.1591 3.5982 -1.9667 1.53901 5 
158 1 37.1702 1.87527 -3.05696 0.192481 1 
159 1 37.4567 4.74037 -3.38325 0.28057 1 
160 1 39.487 3.007 -4.37148 0.0251323 1 
161 1 39.1942 3.32381 -1.60269 2.20387 5 
162 1 41.2214 1.59703 -2.69205 0.388256 1 
163 1 41.5319 4.40438 -2.8431 0.200319 1 
164 1 43.553 2.62657 -3.81126 0.301677 1 
165 1 43.2672 3.05218 -0.888131 5.80576 5 
166 1 45.4382 1.25016 -2.17311 0.979873 1 
167 1 45.5418 4.0762 -2.25726 6.13621 5 
168 1 47.5799 2.3572 -3.41453 0.15773 1 
169 1 47.2284 2.65799 -0.293381 6.8304 5 
170 1 49.296 0.919266 -1.81411 7.18271 5 
171 1 49.5498 3.69748 -1.76029 5.25291 5 
172 1 51.6074 1.9477 -2.97163 0.108316 1 
173 1 51.5149 2.27238 -0.0384165 8.76882 5 
174 1 53.3415 0.447511 -1.18212 4.29569 5 
175 1 53.6093 3.30227 -1.45886 1.4413 5 
176 1 55.5829 1.57739 -2.57661 0.217829 1 
177 1 55.3207 1.48258 0.371758 10.8465 5 
178 1 57.3962 0.153882 -1.07106 8.08635 5 
179 1 57.6281 2.90089 -0.989861 1.99545 5 
180 1 59.676 1.34568 -2.11242 1.05852 5 
181 1 0.221422 95.2164 -0.734343 9.56472 5 
182 1 62.1007 2.72114 -0.545577 5.27118 5 
183 1 63.7808 1.00595 -1.86168 2.75061 5 
184 1 64.8511 3.37617 0.372756 5.04045 5 
185 1 67.8978 0.593378 -1.24195 8.63801 5 
186 1 69.5749 2.68187 0.135323 9.4019 5 
187 1 71.4497 0.1993 -0.841684 9.82833 5 
188 1 14.4556 95.086 -0.532483 10.9943 5 
189 1 1.11081 8.10121 -3.98337 0.0557536 1 
190 1 1.35414 10.9776 -4.26224 0.0304982 1 
191 1 3.36152 9.25583 -5.35732 0.0183314 1 
192 1 3.07815 9.56882 -2.55055 1.68191 5 
193 1 5.0973 7.83849 -3.68531 0.173373 1 
194 1 5.39952 10.6684 -3.93118 0.244184 1 
195 1 7.39251 8.91347 -4.96092 0.0381066 1 
196 1 7.12286 9.296 -2.13151 0.521041 1 
197 1 9.10069 7.42573 -3.32057 0.313062 1 
198 1 9.40013 10.2796 -3.37105 0.125754 1 
199 1 11.3855 8.49773 -4.56083 0.0609566 1 
200 1 11.1043 8.71435 -1.73345 0.741854 1 
201 1 13.1488 7.03682 -2.72736 0.684867 1 
202 1 13.3781 9.83925 -3.08621 0.711297 1 
203 1 15.3988 8.14815 -4.0281 0.365449 1 
204 1 15.4335 8.41158 -0.754081 11.3166 5 
205 1 17.0947 6.71042 -2.28951 6.31884 5 
206 1 17.4092 9.55206 -2.56993 1.83697 5 
207 1 19.3898 7.7662 -3.63453 0.640842 5 
208 1 18.5381 8.23266 -0.41004 9.84533 5 
209 1 21.2504 6.22439 -2.07963 2.91236 5 
210 1 21.3535 8.99418 -2.0821 6.07931 5 
211 1 23.4509 7.40034 -3.32442 0.167096 1 
212 1 23.2597 7.7842 -0.340595 8.74997 5 
213 1 25.1185 5.92733 -1.48836 5.85474 5 
214 1 25.3616 8.79986 -1.78758 2.65838 5 
215 1 27.3741 7.07934 -2.88233 0.123246 1 
216 1 26.9808 7.18989 0.0557964 11.5143 5 
217 1 29.1896 5.66942 -1.34226 7.30389 5 
218 1 29.3584 8.45894 -1.32006 2.19757 5 
219 1 31.3936 6.82921 -2.5326 0.33833 1 
220 1 33.1796 5.45898 -1.09035 8.59641 5 
221 1 33.5039 8.1476 -0.896523 3.53847 5 
222 1 35.4445 6.5559 -2.18626 4.73663 5 
223 1 37.1469 5.13536 -0.757488 12.0336 5 
224 1 38.2841 7.61235 0.464632 8.23612 5 
225 1 39.4417 6.16856 -1.76955 4.74535 5 
226 1 41.0509 4.67405 -0.131696 11.2967 5 
227 1 41.2487 7.46173 -0.0893776 8.87764 5 
228 1 43.5547 5.78917 -1.08634 6.89703 5 
229 1 47.4968 5.47162 -0.772186 12.3829 5 
230 1 51.655 5.05615 -0.474646 10.3902 5 
231 1 55.6124 4.37208 -0.00662948 11.635 5 
232 1 1.08212 11.2539 -1.42228 6.26898 5 
233 1 1.32604 14.1336 -1.71711 2.58324 5 
234 1 3.3178 12.4262 -2.77849 0.310047 1 
235 1 2.8596 12.565 0.15767 10.5125 5 
236 1 5.12246 11.1207 -1.29299 7.27594 5 
237 1 5.39043 13.86 -1.07785 4.96855 5 
238 1 7.50348 12.098 -2.23768 0.839416 1 
239 1 9.15395 10.5703 -0.400786 6.41908 5 
240 1 9.26982 13.4407 -0.256792 8.8383 5 
241 1 11.3451 11.6641 -1.91199 0.731941 1 
242 1 13.0882 9.87532 -0.405299 7.67717 5 
243 1 13.5061 12.906 -0.483872 3.25066 5 
244 1 15.3036 11.2374 -1.64801 5.46208 5 
245 1 17.2746 10.8023 0.0280808 3.21382 5 
246 1 16.0328 13.2418 0.707705 9.89235 5 
247 1 19.6786 10.8839 -1.10814 9.61277 5 
248 1 23.3033 10.5498 -0.771398 9.55634 5 
249 1 27.3283 9.9934 -0.342839 11.8326 5 
250 1 31.4267 9.60989 0.0149804 10.2354 5 
251 1 3.24376 15.3711 -0.256804 10.8814 5 
256 1 1.63912 1.36412 -14.8865 5.202e-05 1 
259 1 3.64685 2.74515 -13.3822 7.20908e-05 1 
260 1 5.65525 1.02023 -14.4863 3.97848e-05 1 
261 1 5.92142 3.86211 -14.716 2.15778e-05 1 
263 1 7.66473 2.39918 -12.979 7.24582e-05 1 
264 1 9.67276 0.673777 -14.0798 4.70429e-05 1 
265 1 9.93812 3.51472 -14.3099 2.3185e-05 1 
267 1 11.6813 2.05019 -12.5696 5.77593e-05 1 
268 1 13.6873 0.32559 -13.6695 4.60861e-05 1 
269 1 13.9527 3.16565 -13.9003 3.34491e-05 1 
271 1 15.6937 1.69989 -12.1586 3.91237e-05 1 
272 1 -43.5884 95.2162 -13.2616 5.45686e-05 1 
273 1 17.9644 2.8159 -13.4919 3.82993e-05 1 
274 1 19.9711 1.09305 -14.5948 3.75611e-05 1 
275 1 19.7046 1.34985 -11.751 0.000165883 1 
276 1 21.9759 2.46655 -13.0873 8.39271e-05 1 
277 1 23.9844 0.744632 -14.1912 5.45673e-05 1 
278 1 23.7167 0.999655 -11.3491 0.000330544 1 
279 1 25.9885 2.11859 -12.6875 9.66525e-05 1 
280 1 27.9997 0.397311 -13.7892 5.83468e-05 1 
281 1 27.7313 0.651225 -10.9528 0.00024507 1 
282 1 30.0037 1.77322 -12.2886 0.000147724 1 
283 1 32.0171 0.052078 -13.3847 6.57705e-05 1 
284 1 31.7481 0.307004 -10.5516 0.0002761 1 
285 1 34.0215 1.43 -11.886 0.000211117 1 
286 1 -25.5226 95.205 -10.1458 0.00043825 1 
287 1 38.0439 1.0873 -11.4766 0.000299905 1 
288 1 42.0717 0.744224 -11.0548 0.000553739 1 
289 1 46.0944 0.400467 -10.6225 0.000540252 1 
290 1 50.1069 0.0564097 -10.1908 0.000402999 1 
291 1 1.63925 4.46925 -12.2743 0.000226134 1 
292 1 1.90558 7.31145 -12.5104 0.000122475 1 
293 1 3.91289 5.58712 -13.6135 5.86356e-05 1 
294 1 3.64454 5.85097 -10.7743 0.000366293 1 
295 1 5.65499 4.1248 -11.8786 0.000117042 1 
296 1 5.92025 6.96758 -12.1129 0.000175994 1 
297 1 7.92962 5.2403 -13.2118 5.77177e-05 1 
298 1 7.66265 5.50242 -10.3784 0.000466405 1 
299 1 9.67306 3.77538 -11.4712 0.000127099 1 
300 1 9.93725 6.61698 -11.7079 0.000255933 1 
301 1 11.9459 4.89023 -12.8023 6.43554e-05 1 
302 1 11.6805 5.14822 -9.96473 0.000447523 1 
303 1 13.6881 3.42363 -11.0578 0.000119381 1 
304 1 13.952 6.26315 -11.2922 0.000199285 1 
305 1 15.9582 4.53898 -12.3901 6.94022e-05 1 
306 1 15.692 4.79382 -9.54389 0.000211479 1 
307 1 17.6984 3.07122 -10.6469 9.61129e-05 1 
308 1 17.9607 5.90949 -10.8794 0.000240254 1 
309 1 19.9681 4.18778 -11.9837 9.37418e-05 1 
310 1 19.6995 4.43869 -9.13727 0.000570618 1 
311 1 21.7086 2.71946 -10.2414 0.000385521 1 
312 1 21.9702 5.55785 -10.4809 0.000242374 1 
313 1 23.9787 3.83877 -11.5827 0.000151267 1 
314 1 23.7084 4.08752 -8.73685 0.00104128 1 
315 1 25.7178 2.37013 -9.84729 0.000402938 1 
316 1 25.9798 5.21199 -10.0824 0.000334356 1 
317 1 27.9902 3.49348 -11.1873 0.000240893 1 
318 1 27.7142 3.74312 -8.35013 0.00121486 1 
319 1 29.7324 2.02585 -9.45631 0.000554785 1 
320 1 29.9888 4.87266 -9.69263 0.00106245 1 
321 1 32.0052 3.15164 -10.7927 0.000470952 1 
322 1 31.7277 3.40516 -7.96835 0.00181673 1 
323 1 33.7482 1.68501 -9.05923 0.000930287 1 
324 1 34.0047 4.53525 -9.30302 0.0023827 1 
325 1 36.0249 2.81066 -10.3917 0.000716784 1 
326 1 35.7445 3.06845 -7.57816 0.00302401 1 
327 1 37.7687 1.34564 -8.65804 0.00156541 1 
328 1 38.0305 4.19422 -8.89748 0.00289001 1 
329 1 40.0528 2.4683 -9.97554 0.000755299 1 
330 1 39.7773 2.73076 -7.16614 0.0039103 1 
331 1 41.8057 1.00589 -8.23925 0.00451661 1 
332 1 42.0635 3.84797 -8.45983 0.00145457 1 
333 1 44.0823 2.12531 -9.53652 0.000936352 1 
334 1 43.82 2.39056 -6.69734 0.0156945 1 
335 1 45.8385 0.663269 -7.79601 0.00453933 1 
336 1 46.0849 3.50493 -8.00708 0.00272094 1 
337 1 48.1014 1.78193 -9.1003 0.000906672 1 
338 1 47.8403 2.05336 -6.25669 0.00959096 1 
339 1 49.8483 0.31652 -7.35487 0.00526859 1 
340 1 50.1045 3.1597 -7.56851 0.00557782 1 
341 1 52.1125 1.43647 -8.67238 0.000567721 1 
342 1 51.8537 1.69876 -5.82557 0.006781 1 
343 1 -7.4377 95.2097 -6.92289 0.000604327 1 
344 1 54.1227 2.81281 -7.15449 0.0014968 1 
345 1 56.1218 1.09363 -8.26205 0.000795492 1 
346 1 55.8621 1.34902 -5.41841 0.0116889 1 
347 1 58.1382 2.47447 -6.74214 0.00309975 1 
348 1 60.1319 0.759517 -7.87027 0.00189606 1 
349 1 59.8937 1.02614 -5.01742 0.0288625 1 
350 1 62.1403 2.14982 -6.35843 0.0128562 1 
351 1 64.1487 0.426883 -7.50148 0.00437117 1 
352 1 63.9092 0.694391 -4.69317 0.0501166 1 
353 1 66.1697 1.81296 -5.97569 0.0112365 1 
354 1 68.1726 0.0851461 -7.08508 0.00253343 1 
355 1 67.9421 0.355476 -4.24472 0.0911374 1 
356 1 70.1834 1.45178 -5.55722 0.0173917 1 
357 1 10.6387 95.2339 -3.76322 0.130527 1 
358 1 74.1791 1.08908 -5.11447 0.0259586 1 
359 1 78.2166 0.736787 -4.70375 0.029229 1 
360 1 82.2356 0.402774 -4.30024 0.0230656 1 
361 1 24.933 95.211 -3.84566 0.437057 1 
362 1 1.63734 7.57531 -9.66986 0.000623317 1 
363 1 1.90546 10.4221 -9.91217 0.000795343 1 
364 1 3.91208 8.69578 -11.0121 0.000393883 1 
365 1 3.64057 8.96719 -8.1819 0.00240137 1 
366 1 5.65072 7.23428 -9.28332 0.0013384 1 
367 1 5.9221 10.0827 -9.51126 0.00143115 1 
368 1 7.92815 8.3484 -10.611 0.000440198 1 
369 1 7.65961 8.6204 -7.78462 0.00307542 1 
370 1 9.66864 6.87786 -8.88076 0.00232181 1 
371 1 9.9326 9.72707 -9.10034 0.000930814 1 
372 1 11.943 7.99088 -10.2017 0.000781778 1 
373 1 11.67 8.24883 -7.37593 0.00638968 1 
374 1 13.6854 6.51851 -8.44944 0.00158508 1 
375 1 13.9471 9.3588 -8.69705 0.00392941 1 
376 1 15.9536 7.63166 -9.77783 0.00161833 1 
377 1 15.6779 7.88261 -6.91538 0.0177735 1 
378 1 17.6896 6.16152 -8.02666 0.00138307 1 
379 1 17.9517 8.99356 -8.27917 0.00211582 1 
380 1 19.9601 7.27716 -9.37258 0.00140324 1 
381 1 19.6837 7.52403 -6.51161 0.0180649 1 
382 1 21.6997 5.80339 -7.64408 0.0052961 1 
383 1 21.9607 8.64312 -7.87577 0.00326045 1 
384 1 23.9729 6.92886 -8.9807 0.000378939 1 
385 1 23.7038 7.17145 -6.14839 0.00538202 1 
386 1 25.706 5.45768 -7.24154 0.00180934 1 
387 1 25.974 8.30431 -7.47246 0.00173482 1 
388 1 27.977 6.59171 -8.58128 0.00151477 1 
389 1 27.6915 6.84579 -5.73976 0.0124553 1 
390 1 29.7069 5.12534 -6.87201 0.0085021 1 
391 1 29.9689 7.97868 -7.06526 0.00315672 1 
392 1 31.9839 6.26051 -8.19644 0.00291576 1 
393 1 31.6942 6.52595 -5.37398 0.0188022 1 
394 1 33.7211 4.79394 -6.50397 0.0195341 1 
395 1 33.9777 7.6515 -6.684 0.00529787 1 
396 1 36.0073 5.92524 -7.80956 0.00703334 1 
397 1 35.7155 6.19826 -5.0189 0.0444602 1 
398 1 37.7485 4.45886 -6.10965 0.0262008 1 
399 1 38.0139 7.30954 -6.2675 0.00971133 1 
400 1 40.0391 5.5757 -7.38348 0.00474861 1 
401 1 39.7649 5.84311 -4.57909 0.0361288 1 
402 1 41.7957 4.1033 -5.63988 0.0169218 1 
403 1 42.031 6.94923 -5.85757 0.01097 1 
404 1 44.0634 5.22494 -6.93014 0.00314884 1 
405 1 43.7792 5.48162 -4.08857 0.0525466 1 
406 1 45.805 3.77396 -5.14507 0.0307212 1 
407 1 46.0512 6.59675 -5.41319 0.00782994 1 
408 1 48.0856 4.87711 -6.48923 0.00347857 1 
409 1 47.8197 5.14727 -3.6523 0.0450122 1 
410 1 49.8451 3.4197 -4.69076 0.0687622 1 
411 1 50.0834 6.24509 -4.98001 0.0264083 1 
412 1 52.1156 4.53013 -6.06391 0.00604459 1 
413 1 51.8559 4.78878 -3.24374 0.0743121 1 
414 1 53.871 3.06565 -4.29873 0.014033 1 
415 1 54.1568 5.88949 -4.54298 0.0344261 1 
416 1 56.1486 4.18201 -5.63532 0.00608757 1 
417 1 55.9356 4.41464 -2.79629 0.171033 1 
418 1 57.8962 2.71135 -3.87252 0.0371966 1 
419 1 58.1707 5.55769 -4.06803 0.0479416 1 
420 1 60.1565 3.85549 -5.21534 0.00553691 1 
421 1 59.953 4.12436 -2.35492 0.701023 5 
422 1 61.9357 2.40261 -3.46525 0.274552 1 
423 1 62.1631 5.25733 -3.68897 0.0901349 1 
424 1 64.1608 3.52651 -4.87982 0.0603439 1 
425 1 64.0329 3.91472 -2.0994 5.12499 5 
426 1 65.9724 2.05707 -3.12296 6.1914 5 
427 1 66.1785 4.96398 -3.40951 0.745447 1 
428 1 68.1538 3.19605 -4.45102 0.256725 1 
429 1 67.5019 3.53709 -1.38013 7.64491 5 
430 1 69.8743 1.77195 -2.70219 0.837939 1 
431 1 69.9904 4.51754 -2.86793 1.47994 5 
432 1 72.1751 2.82121 -4.07891 0.147802 1 
433 1 71.9802 2.97566 -1.33819 9.00476 5 
434 1 73.9072 1.26362 -2.23077 4.92023 5 
435 1 74.1779 4.1744 -2.48541 1.68159 5 
436 1 76.1913 2.44439 -3.68365 0.14509 1 
437 1 76.0244 2.66395 -0.991679 10.4196 5 
438 1 77.9791 0.955601 -1.86875 1.42487 5 
439 1 78.2142 3.84848 -2.14922 0.255755 1 
440 1 80.2362 2.10486 -3.14393 0.155821 1 
441 1 79.7687 2.36093 -0.211191 6.16117 5 
442 1 82.0504 0.658974 -1.39522 1.18622 5 
443 1 82.1697 3.50173 -1.68971 0.498088 1 
444 1 84.2445 1.75092 -2.7149 0.117009 1 
445 1 83.9773 2.16327 0.140908 7.35734 5 
446 1 85.8707 0.295072 -0.88453 8.39411 5 
447 1 86.2783 3.07901 -1.22176 6.54459 5 
448 1 88.2003 1.46164 -2.54877 5.60323 5 
449 1 88.4828 0.595895 -0.060144 10.4085 5 
450 1 90.1456 2.86277 -0.927228 11.4644 5 
451 1 92.1325 1.15907 -2.05344 8.61408 5 
452 1 94.1983 2.7684 -0.599922 11.7996 5 
453 1 96.1486 0.740224 -1.47215 6.31782 5 
454 1 98.2609 2.42453 -0.283488 9.32315 5 
455 1 100.246 0.499208 -1.38886 5.04134 5 
456 1 104.377 0.301505 -1.25796 8.29247 5 
457 1 1.63586 10.6936 -7.08348 0.00456241 1 
458 1 1.90947 13.542 -7.31603 0.00382883 1 
459 1 3.91771 11.8159 -8.40999 0.00406937 1 
460 1 3.64494 12.1079 -5.58814 0.0377085 1 
461 1 5.65556 10.3632 -6.69549 0.0154938 1 
462 1 5.93531 13.2053 -6.86024 0.0126942 1 
463 1 7.93291 11.4688 -7.98929 0.00271288 1 
464 1 7.68143 11.7561 -5.13904 0.0386054 1 
465 1 9.66069 9.99908 -6.25546 0.0104677 1 
466 1 9.9301 12.8445 -6.45808 0.016395 1 
467 1 11.9313 11.0983 -7.59765 0.00358555 1 
468 1 11.6579 11.3495 -4.76128 0.022545 1 
469 1 13.6672 9.60931 -5.88211 0.0317184 1 
470 1 13.946 12.4572 -6.11289 0.00480394 1 
471 1 15.9531 10.7217 -7.19932 0.00610207 1 
472 1 15.6799 10.9653 -4.39521 0.0780098 1 
473 1 17.6741 9.23607 -5.43261 0.0142361 1 
474 1 17.9516 12.0844 -5.68476 0.0267017 1 
475 1 19.9491 10.3561 -6.79803 0.0079931 1 
476 1 19.6758 10.5734 -3.97833 0.189493 1 
477 1 21.6844 8.88004 -5.02261 0.0599795 1 
478 1 21.9586 11.7203 -5.33865 0.0327502 1 
479 1 23.9713 10.0104 -6.38768 0.0155219 1 
480 1 23.6705 10.2292 -3.57625 0.147638 1 
481 1 25.6943 8.54759 -4.62485 0.0142355 1 
482 1 25.9509 11.3916 -4.82206 0.0376328 1 
483 1 27.965 9.68627 -5.94944 0.00343618 1 
484 1 27.6733 9.93323 -3.12258 0.118128 1 
485 1 29.6784 8.23552 -4.1983 0.0349015 1 
486 1 29.9479 11.0611 -4.38567 0.0452136 1 
487 1 31.9643 9.36123 -5.54499 0.00675401 1 
488 1 31.7258 9.625 -2.68863 0.248184 1 
489 1 33.6787 7.90184 -3.83208 0.0963845 1 
490 1 33.9789 10.7357 -3.99898 0.118808 1 
491 1 35.9887 9.02874 -5.18432 0.0370599 1 
492 1 35.736 9.32216 -2.42238 6.20975 5 
493 1 37.7204 7.56927 -3.42772 6.53509 5 
494 1 38.0258 10.393 -3.59979 0.065157 1 
495 1 40.0107 8.6767 -4.72303 0.0179444 1 
496 1 39.6942 8.9449 -1.81119 5.83829 5 
497 1 41.7392 7.19049 -3.00803 0.176368 1 
498 1 41.9708 10.0474 -3.21529 0.0352811 1 
499 1 43.9989 8.31552 -4.36743 0.0321399 1 
500 1 43.6748 8.55814 -1.58569 5.94507 5 
501 1 45.7515 6.85958 -2.59125 2.55932 5 
502 1 45.9322 9.68955 -2.8606 0.23143 1 
503 1 48.0521 7.9785 -3.95987 0.0670612 1 
504 1 47.701 8.29592 -1.2296 10.3816 5 
505 1 49.7889 6.50679 -2.1223 2.79265 5 
506 1 50.0561 9.333 -2.37656 1.66235 5 
507 1 52.1256 7.6067 -3.58979 0.240902 1 
508 1 51.9377 7.84434 -0.933683 10.1786 5 
509 1 53.9387 6.12269 -1.6943 1.47856 5 
510 1 54.1601 9.02091 -2.06164 0.36113 1 
511 1 56.1742 7.25237 -2.98121 0.169205 1 
512 1 55.7489 7.61151 -0.108247 6.16107 5 
513 1 57.9384 5.76875 -1.10786 2.09805 5 
514 1 58.102 8.64584 -1.5747 1.15158 1 
515 1 60.1803 6.93489 -2.54673 0.23732 1 
516 1 60.018 7.54036 0.186415 7.33897 5 
517 1 61.9382 5.51164 -0.66353 7.172 5 
518 1 62.2564 8.35474 -1.11493 7.9107 5 
519 1 64.1939 6.6974 -2.18454 6.48375 5 
520 1 66.1036 5.71402 -0.258002 10.2036 5 
521 1 66.1599 8.37537 -0.882141 9.70222 5 
522 1 68.079 6.46677 -2.01734 6.17372 5 
523 1 69.1806 5.36729 0.154375 9.04478 5 
524 1 70.1018 7.85034 -0.594632 9.97849 5 
525 1 71.9716 5.91101 -1.64813 7.74636 5 
526 1 73.9367 6.80295 0.00497752 5.33587 5 
527 1 76.1234 5.53721 -0.989944 8.6432 5 
528 1 80.0842 5.28912 -0.590007 6.66525 5 
529 1 84.3459 4.98627 0.190785 8.9261 5 
530 1 87.0735 4.41068 0.984683 7.91725 5 
531 1 1.63724 13.837 -4.49874 0.0270128 1 
532 1 1.8928 16.6471 -4.72167 0.017614 1 
533 1 3.94017 14.9302 -5.78311 0.019867 1 
534 1 3.69329 15.2371 -2.97639 0.317075 1 
535 1 5.6809 13.4741 -3.95644 0.165528 1 
536 1 5.97118 16.3085 -4.16883 0.143319 1 
537 1 7.9321 14.587 -5.30058 0.0326932 1 
538 1 7.72513 14.8791 -2.33214 6.81283 5 
539 1 9.66286 13.1336 -3.58674 0.331409 1 
540 1 9.94516 15.9564 -3.79627 0.209362 1 
541 1 11.9554 14.2016 -5.02214 0.092593 1 
542 1 11.6915 14.4373 -2.26746 1.85329 1 
543 1 13.6684 12.7171 -3.31658 0.0632355 1 
544 1 13.9989 15.5595 -3.44392 0.232637 1 
545 1 15.972 13.81 -4.60946 0.0445039 1 
546 1 15.7337 14.1152 -1.83785 5.58995 5 
547 1 17.7139 12.3076 -2.77874 3.50695 5 
548 1 17.9887 15.1523 -3.10848 0.098575 1 
549 1 19.955 13.4507 -4.27525 0.123207 1 
550 1 19.8514 13.6865 -1.49592 6.15389 5 
551 1 21.682 11.9001 -2.59901 1.3627 5 
552 1 21.9621 14.8764 -2.77827 0.523908 1 
553 1 23.9488 13.1019 -3.81509 0.17522 1 
554 1 23.3438 13.3652 -1.082 10.1132 5 
555 1 25.5954 11.6412 -1.93005 1.94126 5 
556 1 25.8105 14.47 -2.20806 4.85341 5 
557 1 27.9141 12.7651 -3.26961 0.0768482 1 
558 1 27.495 13.1538 -0.522702 9.25876 5 
559 1 29.6372 11.2814 -1.4587 2.79619 5 
560 1 29.9394 14.0524 -1.74819 4.24205 5 
561 1 31.9994 12.3908 -2.92801 0.256294 1 
562 1 31.8462 12.6884 -0.257772 11.5204 5 
563 1 33.8567 10.9353 -0.937611 7.08883 5 
564 1 34.0507 13.8256 -1.30643 5.64472 5 
565 1 35.9964 12.1103 -2.45245 6.86227 5 
566 1 37.7787 10.6411 -0.681181 8.38392 5 
567 1 37.9602 13.5322 -1.07978 6.80921 5 
568 1 39.9918 11.7609 -2.035 0.192173 1 
569 1 41.7894 10.2844 -0.319211 7.14643 5 
570 1 41.9595 13.193 -0.731844 1.41017 5 
571 1 43.9538 11.4166 -1.68298 0.298741 1 
572 1 45.4555 9.79239 0.131803 9.43434 5 
573 1 45.9894 12.6449 -0.306861 6.41926 5 
574 1 47.9531 11.1146 -1.61812 6.44703 5 
575 1 50.0427 12.0602 0.0377134 8.79904 5 
576 1 52.0799 10.7218 -1.03859 6.28893 5 
577 1 56.0595 10.5294 -0.558029 5.95899 5 
578 1 60.4071 10.3176 0.271432 9.11007 5 
579 1 1.58094 16.9551 -1.93331 1.52285 5 
580 1 1.86896 19.8143 -2.20931 0.617141 5 
581 1 3.93815 18.0063 -3.17495 0.290831 1 
582 1 3.38047 18.3787 -0.452073 10.0996 5 
583 1 5.79971 16.6137 -1.07153 8.94164 5 
584 1 5.84117 19.37 -1.66813 4.25457 5 
585 1 7.98932 17.6852 -2.70374 0.91665 5 
586 1 7.9435 18.6399 -0.124009 3.4413 5 
587 1 9.58382 16.2519 -0.71908 8.93302 5 
588 1 10.3042 19.0403 -1.29411 8.43293 5 
589 1 12.0439 17.156 -2.18308 5.50932 5 
590 1 14.0764 15.8167 -0.354913 8.61997 5 
591 1 13.9232 18.6882 -0.761495 9.72132 5 
592 1 16.0238 16.9646 -1.87159 1.33979 5 
593 1 17.8143 15.2205 -0.242236 12.2683 5 
594 1 18.1587 18.0678 -0.467615 11.582 5 
595 1 19.9926 16.5052 -1.66685 2.37755 5 
596 1 21.5182 14.9657 0.280319 5.77629 5 
597 1 21.7635 17.8935 -0.192979 8.2717 5 
598 1 23.8435 16.1902 -0.922097 4.6956 5 
599 1 26.2854 15.7217 0.225614 8.60782 5 
600 1 31.9005 15.494 -0.0545578 10.6367 5 
601 1 35.7108 15.3682 0.340629 11.9399 5 
602 1 4.08822 21.1467 -0.554539 7.88535 5 
603 1 9.53181 20.7907 0.723847 5.34334 5 
604 1 12.255 20.5183 0.482518 9.31302 5 
662 1 20.2366 3.93337 -14.8265 2.89263e-05 1 
666 1 24.249 3.58562 -14.4234 4.12753e-05 1 
670 1 28.2628 3.23991 -14.0225 7.48508e-05 1 
674 1 32.2791 2.8961 -13.6206 0.000140973 1 
675 1 34.2929 1.17356 -14.7147 6.69796e-05 1 
676 1 34.5564 4.01849 -14.9475 0.000119742 1 
678 1 36.299 2.55276 -13.2134 0.00019888 1 
679 1 38.314 0.829456 -14.302 8.96437e-05 1 
680 1 38.5769 3.67418 -14.5351 0.000129792 1 
682 1 40.3227 2.20877 -12.7966 0.000203611 1 
683 1 42.3363 0.485317 -13.8817 0.000122685 1 
684 1 42.598 3.32914 -14.1148 9.55743e-05 1 
686 1 44.3454 1.86459 -12.3694 0.000151811 1 
687 1 46.3547 0.141301 -13.4564 0.000117135 1 
688 1 46.6161 2.98429 -13.6901 7.46042e-05 1 
689 1 48.6243 1.26198 -14.7813 5.05879e-05 1 
690 1 48.3621 1.52057 -11.9411 0.000155833 1 
691 1 -10.9206 95.0375 -13.0325 8.22037e-05 1 
692 1 50.63 2.64032 -13.2676 9.34768e-05 1 
693 1 52.635 0.918968 -14.3636 3.65883e-05 1 
694 1 52.3728 1.17713 -11.5187 9.74354e-05 1 
695 1 54.6406 2.29797 -12.8528 7.45984e-05 1 
696 1 56.6433 0.577374 -13.9549 4.52122e-05 1 
697 1 56.3808 0.835747 -11.1092 0.000118143 1 
698 1 58.6491 1.95832 -12.4477 0.000134817 1 
699 1 60.6527 0.237347 -13.5558 8.97646e-05 1 
700 1 60.3889 0.497981 -10.7143 0.000305198 1 
701 1 62.6598 1.62004 -12.0522 0.000185872 1 
702 1 3.38005 95.1368 -13.1598 0.000116491 1 
703 1 64.4046 0.160669 -10.327 0.000591252 1 
704 1 66.6788 1.27911 -11.6533 0.000164883 1 
705 1 7.13928 95.0581 -9.92056 0.000359902 1 
706 1 70.6978 0.933792 -11.2422 0.000171402 1 
707 1 74.7113 0.585956 -10.8248 0.000156258 1 
708 1 78.7218 0.237348 -10.414 0.00024849 1 
709 1 21.445 95.1282 -10.0116 0.000362585 1 
711 1 0.166931 8.77223 -14.2486 5.21806e-05 1 
715 1 4.18074 8.43041 -13.847 7.34565e-05 1 
716 1 6.18821 6.70454 -14.9481 2.90507e-05 1 
719 1 8.19604 8.08374 -13.4435 8.1833e-05 1 
720 1 10.204 6.35652 -14.5426 3.75371e-05 1 
721 1 10.4706 9.1997 -14.7729 3.8664e-05 1 
723 1 12.2108 7.73222 -13.0359 0.000115495 1 
724 1 14.2182 6.00637 -14.133 3.95245e-05 1 
725 1 14.4841 8.84841 -14.3667 6.64781e-05 1 
727 1 16.2229 7.37901 -12.6244 0.000171902 1 
728 1 18.2295 5.65593 -13.7245 5.7644e-05 1 
729 1 18.4961 8.49716 -13.9602 6.65382e-05 1 
731 1 20.2328 7.02776 -12.2187 0.000158696 1 
732 1 22.2407 5.30685 -13.3214 4.67056e-05 1 
733 1 22.5082 8.14876 -13.555 7.67713e-05 1 
734 1 24.5156 6.42788 -14.6559 4.03032e-05 1 
735 1 24.2445 6.68053 -11.8181 0.00010292 1 
736 1 26.2526 4.96084 -12.9204 9.98597e-05 1 
737 1 26.5203 7.80455 -13.1499 0.000112059 1 
738 1 28.5284 6.08404 -14.2525 9.29576e-05 1 
739 1 28.2545 6.3388 -11.4174 0.00031801 1 
740 1 30.2655 4.61818 -12.5218 0.000248059 1 
741 1 30.5313 7.46414 -12.7454 0.000197697 1 
742 1 32.543 5.74199 -13.8494 0.000179271 1 
743 1 32.2664 6.00054 -11.0207 0.000673968 1 
744 1 34.2827 4.27675 -12.1212 0.000455235 1 
745 1 34.5463 7.12388 -12.3419 0.000294939 1 
746 1 36.5618 5.39904 -13.4421 0.000240725 1 
747 1 36.2869 5.66021 -10.6195 0.00113995 1 
748 1 38.3055 3.93347 -11.7108 0.000490536 1 
749 1 38.5665 6.77987 -11.9309 0.000227037 1 
750 1 40.5833 5.05362 -13.0258 0.00019088 1 
751 1 40.312 5.31392 -10.2006 0.000755943 1 
752 1 42.3312 3.5882 -11.2851 0.000292008 1 
753 1 42.5871 6.43181 -11.513 0.000344466 1 
754 1 44.6039 4.70722 -12.6015 0.00014417 1 
755 1 44.3357 4.96585 -9.76689 0.000586952 1 
756 1 46.3515 3.24323 -10.8513 0.000305778 1 
757 1 46.6066 6.08351 -11.0881 0.000214859 1 
758 1 48.6209 4.36148 -12.1761 0.000127197 1 
759 1 48.3545 4.61889 -9.33423 0.000524204 1 
760 1 50.3672 2.89877 -10.4221 0.00056143 1 
761 1 50.6251 5.73675 -10.6647 0.00022523 1 
762 1 52.6355 4.01755 -11.7554 0.00012704 1 
763 1 52.3739 4.27363 -8.90938 0.000638587 1 
764 1 54.3798 2.55552 -10.0052 0.000266694 1 
765 1 54.6435 5.39349 -10.2441 0.000462713 1 
766 1 56.6472 3.67701 -11.3421 0.000219656 1 
767 1 56.3916 3.93248 -8.49058 0.000953211 1 