ITEM: TIMESTEP
0
ITEM: NUMBER OF ATOMS
42263
ITEM: BOX BOUNDS xy xz yz pp pp ss
-2.2630585037200001e+02 2.9064217691200002e+02 -2.2630585037200001e+02
0.0000000000000000e+00 8.1166939620999997e+01 0.0000000000000000e+00
-8.6776370262428742e+01 8.9494902351703246e+01 0.0000000000000000e+00
ITEM: ATOMS id type x y z c_csym c_cna 
1 1 -1.16349 0.580239 -2.7843 0.049938 1 
3 1 -1.5772 1.25477 -13.7556 0.000394371 1 
4 1 -0.330805 3.31414 -12.1861 0.000435855 1 
5 1 -0.373139 0.604691 -11.2711 0.000684845 1 
6 1 -1.97633 2.5958 -9.94092 0.000822486 1 
7 1 -0.719306 4.6599 -8.36733 0.00166875 1 
8 1 -0.761616 1.94979 -7.46796 0.00165778 1 
9 1 -2.35812 3.95415 -6.1364 0.00555588 1 
10 1 -1.095 6.00426 -4.53512 0.00680175 1 
11 1 -1.12017 3.30907 -3.67871 0.0283849 1 
12 1 -2.70751 5.31172 -2.29442 0.0784783 1 
13 1 -1.4662 7.30135 -0.74676 3.32232 5 
15 1 -3.62278 1.87678 -7.69179 0.00227095 1 
16 1 -2.39956 1.24057 -5.23475 0.00620104 1 
18 1 -3.98806 3.27016 -3.91726 0.0370919 1 
20 1 -2.73561 2.60536 -1.51826 4.84886 5 
21 1 -5.59792 2.59527 -1.75307 5.03526 5 
23 1 -0.207884 14.6407 -0.890246 2.64491 5 
28 1 -0.245742 8.72012 -14.0223 0.000285878 1 
29 1 -0.287832 6.01902 -13.1025 0.000348451 1 
30 1 -1.88501 8.00582 -11.7749 0.000542348 1 
31 1 -0.635827 10.0606 -10.1742 0.000883052 1 
32 1 -0.677822 7.36243 -9.26734 0.00126894 1 
33 1 -2.27864 9.35082 -7.92925 0.00160536 1 
34 1 -1.03108 11.3964 -6.31453 0.00411407 1 
35 1 -1.06682 8.69678 -5.42045 0.00387245 1 
36 1 -2.67969 10.6829 -4.07839 0.0227735 1 
37 1 -1.49708 12.6753 -2.44117 0.105444 1 
38 1 -1.41883 9.98903 -1.58065 0.434219 1 
51 1 -1.53511 3.96111 -14.6808 0.000246281 1 
52 1 -4.38085 3.88651 -14.9343 0.000280796 1 
53 1 -3.13442 5.94582 -13.3598 0.000321692 1 
54 1 -3.18065 3.24046 -12.4306 0.00046016 1 
55 1 -1.93034 5.30358 -10.8576 0.000648926 1 
56 1 -4.77942 5.2262 -11.1107 0.000605106 1 
57 1 -3.52843 7.29251 -9.53068 0.000974477 1 
58 1 -3.57493 4.58932 -8.61452 0.00151077 1 
59 1 -2.32001 6.65483 -7.02892 0.00240678 1 
60 1 -5.17719 6.5838 -7.28961 0.00272834 1 
61 1 -3.93475 8.64399 -5.68651 0.00532053 1 
62 1 -3.96108 5.96103 -4.79195 0.0120608 1 
63 1 -2.72415 7.99411 -3.18538 0.0264345 1 
64 1 -5.6271 7.9518 -3.44548 0.0712205 1 
65 1 -4.31121 9.96939 -1.86734 0.810302 5 
66 1 -4.43245 7.30368 -0.997996 3.2438 5 
71 1 -6.02645 3.16218 -12.6773 0.000618017 1 
73 1 -4.82828 2.51776 -10.1743 0.00115568 1 
75 1 -6.42737 4.50745 -8.85953 0.00160914 1 
77 1 -5.2186 3.88079 -6.37318 0.00589911 1 
78 1 -8.0736 3.79326 -6.60668 0.0081504 1 
79 1 -6.82344 5.88614 -5.05226 0.017819 1 
80 1 -6.85451 3.18278 -4.13807 0.0438126 1 
81 1 -5.57835 5.28645 -2.55549 0.165245 1 
82 1 -8.43797 5.20665 -2.81975 0.382998 1 
83 1 -7.43786 7.29266 -1.24387 4.07237 5 
84 1 -7.04802 4.68417 -0.260406 6.94473 5 
93 1 -9.86625 4.74345 -0.515637 6.16097 5 
95 1 -0.0423517 20.2794 -2.37592 8.22018 5 
101 1 -0.204976 11.4187 -14.9477 0.00024891 1 
102 1 -1.79747 13.401 -13.6273 0.000473721 1 
103 1 -0.552615 15.452 -12.0219 0.000750559 1 
104 1 -0.593536 12.7578 -11.0928 0.000771692 1 
105 1 -2.18237 14.7438 -9.76248 0.00183228 1 
106 1 -0.939685 16.7999 -8.13477 0.00434415 1 
107 1 -0.986833 14.0981 -7.21542 0.00450931 1 
108 1 -2.56458 16.1029 -5.86474 0.0367262 1 
109 1 -1.31341 18.2001 -4.18861 0.366699 1 
110 1 -1.34992 15.4062 -3.35585 0.0844814 1 
111 1 0.0870646 17.3637 -1.77401 3.27939 5 
112 1 -2.8732 17.3347 -2.03226 3.43021 5 
113 1 -2.09556 21.0192 -0.505493 9.28255 5 
140 1 -3.08887 8.64779 -14.2898 0.000303235 1 
141 1 -1.84022 10.7044 -12.6972 0.000477297 1 
142 1 -4.68151 10.629 -12.9776 0.000588901 1 
143 1 -3.43035 12.6873 -11.3783 0.00102331 1 
144 1 -3.47967 9.99059 -10.4503 0.000853556 1 
145 1 -2.2308 12.0481 -8.84108 0.00160275 1 
146 1 -5.06995 11.9721 -9.13604 0.00271896 1 
147 1 -3.81873 14.0346 -7.50973 0.00831665 1 
148 1 -3.88104 11.3374 -6.59785 0.00373911 1 
149 1 -2.64817 13.3831 -4.96145 0.021872 1 
150 1 -5.49203 13.3153 -5.26991 0.0149375 1 
151 1 -4.23873 15.37 -3.63362 0.0700303 1 
152 1 -4.37219 12.6534 -2.72011 0.112653 1 
153 1 -3.09286 14.6317 -1.15177 2.9383 5 
154 1 -5.9707 14.633 -1.44491 3.1012 5 
177 1 -5.93197 8.5703 -14.5636 0.000362979 1 
178 1 -5.97925 5.86727 -13.6211 0.000368555 1 
179 1 -4.73027 7.92927 -12.0432 0.000532843 1 
180 1 -7.57537 7.84638 -12.3179 0.000672923 1 
181 1 -6.32411 9.9092 -10.7352 0.00123476 1 
182 1 -6.37792 7.21117 -9.79797 0.00105252 1 
183 1 -5.12907 9.2768 -8.20687 0.00178816 1 
184 1 -7.9803 9.1893 -8.49447 0.00276173 1 
185 1 -6.72722 11.2541 -6.90281 0.00401147 1 
186 1 -6.79745 8.56756 -5.9633 0.00838469 1 
187 1 -5.54618 10.6308 -4.36331 0.0233496 1 
188 1 -8.4006 10.5477 -4.67637 0.0176372 1 
189 1 -7.21998 12.6102 -3.03318 0.122397 1 
190 1 -7.20494 9.94114 -2.15163 1.32019 5 
191 1 -6.24902 11.9388 -0.459656 6.88779 5 
192 1 -9.12273 11.9693 -0.760548 7.36552 5 
205 1 -8.82239 5.78618 -13.8884 0.000567691 1 
207 1 -7.62596 5.14321 -11.3674 0.000709848 1 
208 1 -10.4704 5.0586 -11.63 0.00131197 1 
209 1 -9.22715 7.12329 -10.0711 0.00133414 1 
210 1 -9.27665 4.42158 -9.10843 0.00197825 1 
211 1 -8.03323 6.49894 -7.55386 0.00363582 1 
212 1 -10.8907 6.41093 -7.82228 0.00456315 1 
213 1 -9.66268 8.48079 -6.25125 0.0157296 1 
214 1 -9.68847 5.80715 -5.31557 0.0271302 1 
215 1 -8.51591 7.87128 -3.72938 0.143817 1 
216 1 -11.4131 7.80741 -4.0116 0.246599 1 
217 1 -10.0544 9.84136 -2.46407 1.96586 5 
218 1 -10.4439 7.25964 -1.491 6.35138 5 
231 1 -12.5636 5.73106 -5.56912 0.0341459 1 
233 1 -11.3025 5.14431 -3.09079 0.720051 5 
235 1 -13.4071 7.28887 -1.73405 6.56071 5 
247 1 -0.0097085 25.6914 -4.66648 0.0533325 1 
248 1 -1.78785 27.7469 -0.736591 4.74164 5 
256 1 -0.478072 20.8367 -13.9179 0.000919728 1 
257 1 -0.514392 18.1441 -12.9639 0.000787068 1 
258 1 -2.10277 20.1234 -11.6556 0.00203724 1 
259 1 -0.860555 22.1737 -10.0586 0.00553082 1 
260 1 -0.900379 19.4869 -9.07966 0.00402085 1 
261 1 -2.48298 21.4748 -7.77533 0.0411899 1 
262 1 -1.25015 23.5842 -6.25238 0.0410386 1 
263 1 -1.30032 20.8604 -5.13907 0.304341 1 
264 1 -0.0440701 22.9897 -3.77854 5.6473 5 
265 1 -2.91089 22.96 -4.08031 5.29809 5 
266 1 -1.67335 25.1728 -2.39895 8.37223 5 
267 1 -3.33756 23.1859 -1.44272 3.66228 5 
299 1 -1.75816 16.0962 -14.5652 0.00048115 1 
300 1 -4.59653 16.0249 -14.8592 0.000628921 1 
301 1 -3.34798 18.075 -13.2599 0.00105886 1 
302 1 -3.38598 15.382 -12.3145 0.0010701 1 
303 1 -2.14013 17.4349 -10.7006 0.00172675 1 
304 1 -4.97332 17.3602 -11.0166 0.00261255 1 
305 1 -3.72656 19.4151 -9.39675 0.00587465 1 
306 1 -3.76707 16.7267 -8.44507 0.00495362 1 
307 1 -2.52909 18.7903 -6.79861 0.0193522 1 
308 1 -5.36161 18.7019 -7.15923 0.0167298 1 
309 1 -4.13955 20.7922 -5.55145 0.0815646 1 
310 1 -4.16874 18.0531 -4.55046 0.119572 1 
311 1 -3.04901 20.213 -2.93621 8.87303 5 
312 1 -5.82651 19.9425 -3.43183 5.43115 5 
313 1 -6.09538 23.5248 -1.32356 11.9907 5 
314 1 -5.05806 21.0266 -0.91396 8.50773 5 
355 1 -4.6362 13.3275 -13.9163 0.000632775 1 
356 1 -7.47964 13.25 -14.2152 0.000777315 1 
357 1 -6.2259 15.3053 -12.6228 0.00136885 1 
358 1 -6.27127 12.6072 -11.678 0.00134599 1 
359 1 -5.01614 14.6665 -10.0724 0.00279743 1 
360 1 -7.86233 14.5809 -10.3999 0.00262611 1 
361 1 -6.60475 16.6394 -8.79296 0.00624158 1 
362 1 -6.65739 13.9423 -7.84672 0.0076294 1 
363 1 -5.40576 15.9998 -6.21202 0.0147184 1 
364 1 -8.25499 15.893 -6.60484 0.0275156 1 
365 1 -7.02405 17.9184 -4.97099 0.127083 1 
366 1 -7.07776 15.3026 -3.97352 0.0838564 1 
367 1 -5.79353 17.349 -2.21878 2.03639 5 
368 1 -8.69423 17.2363 -2.71777 0.314778 1 
369 1 -7.4377 19.3168 -1.08661 7.27588 5 
401 1 -8.77558 8.49024 -14.844 0.000496115 1 
402 1 -7.52513 10.548 -13.2667 0.000760925 1 
403 1 -10.3717 10.466 -13.5632 0.000906315 1 
404 1 -9.11898 12.5232 -11.9882 0.00142006 1 
405 1 -9.17159 9.82136 -11.0299 0.00153281 1 
406 1 -7.9169 11.8823 -9.44859 0.00259275 1 
407 1 -10.7713 11.7926 -9.7697 0.0028239 1 
408 1 -9.51599 13.8453 -8.19404 0.00630174 1 
409 1 -9.58095 11.1616 -7.22305 0.00473174 1 
410 1 -8.31988 13.226 -5.62943 0.025961 1 
411 1 -11.197 13.1193 -5.99064 0.0150291 1 
412 1 -9.91698 15.1766 -4.42613 0.0754798 1 
413 1 -10.0207 12.5093 -3.44093 0.169939 1 
414 1 -8.8308 14.596 -1.80136 3.36746 5 
415 1 -11.5963 14.473 -2.29226 5.4187 5 
437 1 -11.6632 5.70572 -14.1643 0.000896849 1 
438 1 -10.4206 7.76127 -12.5994 0.00101764 1 
439 1 -13.2634 7.6797 -12.8908 0.00145454 1 
440 1 -12.0207 9.73519 -11.3318 0.001938 1 
441 1 -12.0754 7.03425 -10.3497 0.00255717 1 
442 1 -10.8331 9.09806 -8.79189 0.00420863 1 
443 1 -13.684 9.01003 -9.09691 0.00541613 1 
444 1 -12.4425 11.0718 -7.5551 0.00751859 1 
445 1 -12.525 8.3927 -6.54854 0.0230551 1 
446 1 -11.2724 10.461 -5.00083 0.0225088 1 
447 1 -14.1472 10.3872 -5.35425 0.0368173 1 
448 1 -12.9469 12.4438 -3.7878 0.137401 1 
449 1 -13.0292 9.80112 -2.82806 3.06897 5 
450 1 -11.8139 11.7062 -1.34012 9.64316 5 
451 1 -14.9146 11.7551 -1.50664 9.36472 5 
452 1 -13.3854 13.6205 -0.499363 7.89088 5 
465 1 -14.502 5.62941 -14.451 0.00118463 1 
467 1 -13.3094 4.97588 -11.904 0.00230189 1 
469 1 -14.9134 6.95044 -10.6438 0.00384496 1 
471 1 -13.7459 6.3184 -8.0869 0.0094781 1 
472 1 -16.5693 6.23121 -8.3822 0.0118665 1 
473 1 -15.3737 8.30478 -6.85049 0.0191601 1 
474 1 -15.429 5.62749 -5.79099 0.0619479 1 
475 1 -14.2932 7.74104 -4.29803 0.276975 1 
476 1 -17.1022 7.62547 -4.59567 0.303106 1 
477 1 -15.888 9.79263 -3.128 3.31991 5 
478 1 -16.2634 7.33618 -1.99897 6.42176 5 
479 1 -16.7055 9.78372 -0.398879 2.30575 5 
496 1 -18.972 6.9291 -2.19198 11.1053 5 
510 1 0.102846 30.9911 -6.66469 0.0201314 1 
511 1 -0.285857 32.3976 -2.92244 5.80629 5 
520 1 -0.443776 23.5328 -14.8807 0.000735782 1 
521 1 -2.03867 25.5124 -13.6019 0.00116184 1 
522 1 -0.787426 27.5637 -12.0355 0.0016008 1 
523 1 -0.82135 24.8671 -11.0504 0.00292795 1 
524 1 -2.41614 26.8577 -9.80098 0.00348755 1 
525 1 -1.15602 28.9278 -8.24809 0.00797482 1 
526 1 -1.20132 26.2537 -7.23712 0.0105117 1 
527 1 0.056004 28.3569 -5.68682 0.026674 1 
528 1 -2.78852 28.2794 -6.03788 0.0345675 1 
529 1 -1.53813 30.3645 -4.39396 0.135791 1 
530 1 -1.60382 27.7709 -3.48019 5.12045 5 
531 1 -0.273665 29.8816 -1.73132 8.2569 5 
532 1 -3.14805 29.8798 -2.00639 8.398 5 
567 1 -3.31492 20.7686 -14.2147 0.00104038 1 
568 1 -2.0693 22.815 -12.6263 0.0020431 1 
569 1 -4.91152 22.7464 -12.9377 0.00225204 1 
570 1 -3.66688 24.7978 -11.3649 0.00182482 1 
571 1 -3.69242 22.1023 -10.372 0.00793692 1 
572 1 -2.45177 24.1699 -8.80643 0.00537186 1 
573 1 -5.29867 24.0916 -9.13886 0.00391582 1 
574 1 -4.04759 26.1736 -7.57074 0.0141343 1 
575 1 -4.09539 23.4977 -6.57721 0.0181379 1 
576 1 -2.85508 25.6352 -4.97983 0.16489 1 
577 1 -5.68049 25.5011 -5.35967 0.249274 1 
578 1 -4.42365 27.6985 -3.85362 5.89674 5 
579 1 -4.60194 25.2983 -2.68772 7.6137 5 
580 1 -4.69241 27.8276 -0.986575 5.69387 5 
581 1 -6.52792 25.9285 -0.228246 7.56965 5 
637 1 -6.15917 20.7002 -14.5242 0.00110328 1 
638 1 -6.18908 18.0026 -13.5711 0.00126985 1 
639 1 -4.93912 20.0521 -11.9717 0.00259011 1 
640 1 -7.78841 19.9797 -12.3028 0.00210092 1 
641 1 -6.54052 22.0304 -10.7139 0.00325446 1 
642 1 -6.56764 19.3348 -9.7454 0.00513651 1 
643 1 -5.32629 21.3957 -8.14041 0.00896538 1 
644 1 -8.17987 21.3112 -8.51472 0.0155179 1 
645 1 -6.92941 23.3833 -6.92773 0.0588655 1 
646 1 -6.98531 20.6846 -5.92455 0.142337 1 
647 1 -5.7129 22.803 -4.30625 4.87069 5 
648 1 -8.66395 22.6635 -4.86202 0.243005 1 
649 1 -7.39533 24.768 -3.3158 4.75547 5 
650 1 -7.57268 21.7643 -2.49564 5.9935 5 
651 1 -9.07035 23.7896 -1.40514 8.45988 5 
702 1 -9.04 17.9303 -13.8914 0.00116973 1 
703 1 -9.07498 15.2267 -12.9413 0.00136017 1 
704 1 -7.82 17.2807 -11.3501 0.00239373 1 
705 1 -10.6793 17.2037 -11.6887 0.00214841 1 
706 1 -9.42698 19.2544 -10.1031 0.00514506 1 
707 1 -9.46309 16.5509 -9.15158 0.0053637 1 
708 1 -8.20621 18.6062 -7.54768 0.0285494 1 
709 1 -11.0915 18.5136 -7.93603 0.00877345 1 
710 1 -9.86319 20.5676 -6.37883 0.0475441 1 
711 1 -9.89121 17.8137 -5.4195 0.0980627 1 
712 1 -8.74167 19.7878 -3.85826 0.478187 1 
713 1 -11.5786 19.7521 -4.33444 0.148539 1 
714 1 -10.4169 21.7761 -2.90708 1.2991 5 
715 1 -10.5306 19.0834 -1.72586 6.21731 5 
716 1 -9.46613 21.2032 -0.503793 10.3675 5 
717 1 -12.6685 20.7545 -0.612756 9.24269 5 
758 1 -10.3286 13.1726 -14.5208 0.000799058 1 
759 1 -13.1822 13.0994 -14.8293 0.00071946 1 
760 1 -11.9319 15.1517 -13.2626 0.00114645 1 
761 1 -11.9722 12.4421 -12.3035 0.00139788 1 
762 1 -10.7194 14.4964 -10.7338 0.00235125 1 
763 1 -13.5827 14.4207 -11.0658 0.00187839 1 
764 1 -12.335 16.4696 -9.50745 0.00327385 1 
765 1 -12.3839 13.7607 -8.53895 0.0046126 1 
766 1 -11.1347 15.7994 -6.98436 0.0114179 1 
767 1 -14.0126 15.7336 -7.33995 0.00756891 1 
768 1 -12.7882 17.7512 -5.79374 0.018591 1 
769 1 -12.8265 15.0646 -4.81744 0.0590284 1 
770 1 -11.573 17.0611 -3.26439 0.273549 1 
771 1 -14.5064 16.9887 -3.69582 0.246502 1 
772 1 -13.2997 18.9184 -2.2975 11.5842 5 
773 1 -13.3189 16.3624 -1.08851 5.87493 5 
804 1 -13.2202 10.3883 -13.8661 0.00101074 1 
805 1 -16.0711 10.318 -14.1725 0.000966276 1 
806 1 -14.8282 12.3695 -12.6203 0.00126762 1 
807 1 -14.8677 9.65739 -11.6423 0.00228915 1 
808 1 -13.6288 11.711 -10.0926 0.00285262 1 
809 1 -16.4823 11.6429 -10.4178 0.00292447 1 
810 1 -15.2485 13.6922 -8.87735 0.00429159 1 
811 1 -15.3056 10.9912 -7.8814 0.00813147 1 
812 1 -14.0793 13.0404 -6.34545 0.0180643 1 
813 1 -16.9308 12.9778 -6.6836 0.0201351 1 
814 1 -15.7299 15.0173 -5.18902 0.0780742 1 
815 1 -15.8128 12.3739 -4.11923 0.243249 1 
816 1 -14.6429 14.4237 -2.6846 5.59238 5 
817 1 -17.4168 14.3505 -2.89796 6.04686 5 
818 1 -16.249 16.3999 -1.40316 7.8499 5 
841 1 -16.1053 7.60591 -13.1922 0.00172373 1 
842 1 -18.9506 7.54009 -13.4994 0.00182593 1 
843 1 -17.7157 9.59097 -11.9579 0.00212893 1 
844 1 -17.7465 6.87889 -10.9557 0.0046714 1 
845 1 -16.5221 8.93353 -9.41813 0.00689134 1 
846 1 -19.3609 8.87463 -9.75021 0.00644124 1 
847 1 -18.1408 10.9296 -8.21715 0.0111211 1 
848 1 -18.182 8.22974 -7.19299 0.0262017 1 
849 1 -17.0017 10.304 -5.64389 0.05796 1 
850 1 -19.7784 10.2499 -6.00911 0.0990372 1 
851 1 -18.5905 12.2813 -4.42911 0.347341 1 
852 1 -18.6519 9.59626 -3.25772 3.58301 5 
853 1 -17.711 11.9566 -1.62604 8.09851 5 
854 1 -20.3318 11.6325 -2.34848 9.20876 5 
875 1 -21.0012 8.18672 -7.5635 0.0318547 1 
877 1 -19.8383 7.57844 -4.97389 0.264832 1 
879 1 -21.4685 9.59658 -3.93661 2.24329 5 
881 1 -19.659 9.81779 -0.549792 7.76384 5 
882 1 -22.9262 9.04182 -1.70578 7.73978 5 
916 1 0.140274 36.3527 -8.66245 0.0035378 1 
917 1 -0.280227 37.6918 -4.94932 0.0221644 1 
918 1 -0.786394 38.9348 -1.34917 6.81648 5 
929 1 -0.735267 32.9661 -13.977 0.000666066 1 
930 1 -0.758032 30.2633 -13.0103 0.00101482 1 
931 1 -2.36504 32.2472 -11.7624 0.00118198 1 
932 1 -1.11129 34.3006 -10.2146 0.00185334 1 
933 1 -1.1262 31.6068 -9.23279 0.00470983 1 
934 1 0.125904 33.6626 -7.68147 0.00467727 1 
935 1 -2.74373 33.5918 -8.01973 0.00545839 1 
936 1 -1.49813 35.6412 -6.48681 0.00890442 1 
937 1 -1.51739 32.9707 -5.47337 0.020675 1 
938 1 -0.262172 35.0275 -3.9632 0.048927 1 
939 1 -3.14294 34.9276 -4.31217 0.113931 1 
940 1 -1.99463 36.9298 -2.81785 1.70766 5 
941 1 -1.90196 34.3262 -1.73729 8.10096 5 
942 1 -0.835021 36.3518 -0.396472 6.90637 5 
978 1 -2.01127 28.2133 -14.5725 0.000653536 1 
979 1 -4.86758 28.1481 -14.8725 0.000460582 1 
980 1 -3.61871 30.1962 -13.3148 0.000656672 1 
981 1 -3.64128 27.4951 -12.3435 0.00114631 1 
982 1 -2.38683 29.5502 -10.7893 0.00188661 1 
983 1 -5.25461 29.4789 -11.0988 0.00135295 1 
984 1 -3.9971 31.5344 -9.55446 0.00305426 1 
985 1 -4.02073 28.8509 -8.57675 0.00607037 1 
986 1 -2.74871 30.9213 -7.02166 0.0255003 1 
987 1 -5.62941 30.8299 -7.34971 0.0115688 1 
988 1 -4.3766 32.8985 -5.82441 0.0371832 1 
989 1 -4.36402 30.2883 -4.82435 0.176753 1 
990 1 -3.18994 32.3293 -3.21535 6.41917 5 
991 1 -5.96982 32.222 -3.55406 4.44643 5 
992 1 -4.71052 34.405 -1.97193 11.077 5 
993 1 -6.03305 32.9466 -0.157132 11.8543 5 
1057 1 -4.88908 25.4459 -13.9083 0.000791241 1 
1058 1 -7.74599 25.3825 -14.2176 0.000557033 1 
1059 1 -6.50199 27.4287 -12.6518 0.000811695 1 
1060 1 -6.52064 24.7291 -11.6865 0.00127551 1 
1061 1 -5.27443 26.7838 -10.1211 0.00302989 1 
1062 1 -8.14178 26.712 -10.4403 0.00194483 1 
1063 1 -6.89866 28.7646 -8.88578 0.0044615 1 
1064 1 -6.91354 26.0775 -7.91325 0.0138147 1 
1065 1 -5.66829 28.1617 -6.37499 0.0476254 1 
1066 1 -8.53486 28.0431 -6.64684 0.0529201 1 
1067 1 -7.26113 30.1258 -5.15573 0.0841208 1 
1068 1 -7.27723 27.4165 -4.0786 5.99254 5 
1069 1 -5.92387 29.631 -2.65913 7.63568 5 
1070 1 -8.94005 29.3157 -3.07962 0.386991 5 
1071 1 -7.76436 31.3317 -1.64023 7.77832 5 
1072 1 -7.51236 28.4846 -0.816754 7.4304 5 
1140 1 -9.01243 20.6336 -14.8406 0.000869659 1 
1141 1 -7.76475 22.6802 -13.2605 0.00126264 1 
1142 1 -10.6268 22.6176 -13.5823 0.001021 1 
1143 1 -9.38307 24.6645 -12.0095 0.00158945 1 
1144 1 -9.40133 21.9604 -11.0587 0.00341173 1 
1145 1 -8.15677 24.0147 -9.48156 0.00783426 1 
1146 1 -11.0354 23.9464 -9.82728 0.0058699 1 
1147 1 -9.79828 25.9972 -8.24658 0.00906664 1 
1148 1 -9.83228 23.2945 -7.338 0.0295035 1 
1149 1 -8.59084 25.3626 -5.76702 0.0710259 1 
1150 1 -11.4955 25.2488 -6.06019 0.0598662 1 
1151 1 -10.2176 27.2718 -4.47282 0.154947 1 
1152 1 -10.3422 24.5819 -3.64552 0.558138 1 
1153 1 -9.02684 26.5059 -1.89226 6.89962 5 
1154 1 -11.8198 26.4436 -2.15349 1.35376 5 
1155 1 -10.4509 28.6234 -0.884944 7.18989 5 
1215 1 -11.8994 17.8616 -14.2123 0.000905585 1 
1216 1 -10.6494 19.9108 -12.6366 0.00167777 1 
1217 1 -13.5183 19.8477 -12.9617 0.00111222 1 
1218 1 -12.2749 21.8963 -11.3954 0.00235497 1 
1219 1 -12.3006 19.1827 -10.4554 0.00277229 1 
1220 1 -11.0605 21.2322 -8.8932 0.00716106 1 
1221 1 -13.9418 21.1698 -9.22926 0.00787469 1 
1222 1 -12.7126 23.2168 -7.66647 0.0263469 1 
1223 1 -12.7569 20.488 -6.76512 0.0304571 1 
1224 1 -11.5659 22.5434 -5.2295 0.206322 1 
1225 1 -14.393 22.4792 -5.49564 0.106684 1 
1226 1 -13.1675 24.4535 -3.73623 0.638142 1 
1227 1 -13.2528 21.684 -3.11119 6.01823 5 
1228 1 -11.9552 23.3743 -1.35714 5.70517 5 
1229 1 -14.8407 23.2819 -1.40652 10.1198 5 
1280 1 -14.7642 17.7981 -14.5264 0.000649607 1 
1281 1 -14.7938 15.0839 -13.5802 0.000824436 1 
1282 1 -13.5469 17.1346 -12.0207 0.00137353 1 
1283 1 -16.4165 17.0746 -12.3378 0.0011563 1 
1284 1 -15.1766 19.1231 -10.7838 0.00247036 1 
1285 1 -15.2082 16.4058 -9.84394 0.00250839 1 
1286 1 -13.9734 18.4467 -8.29755 0.00625935 1 
1287 1 -16.8485 18.3989 -8.61484 0.00689832 1 
1288 1 -15.6225 20.4394 -7.06736 0.0220512 1 
1289 1 -15.6703 17.7143 -6.15319 0.0284205 1 
1290 1 -14.4695 19.724 -4.64365 0.107704 1 
1291 1 -17.3003 19.6988 -4.88632 0.0860744 1 
1292 1 -16.038 21.6637 -3.29169 6.3077 5 
1293 1 -16.1048 19.0098 -2.43402 11.5337 5 
1294 1 -17.2641 20.9229 -0.836025 11.0933 5 
1335 1 -17.658 15.0236 -13.8892 0.000693971 1 
1336 1 -17.6866 12.3066 -12.9337 0.00102535 1 
1337 1 -16.4472 14.3576 -11.3888 0.00138728 1 
1338 1 -19.3118 14.3039 -11.6993 0.00138332 1 
1339 1 -18.0781 16.3537 -10.1583 0.00290306 1 
1340 1 -18.1081 13.6376 -9.20443 0.00420828 1 
1341 1 -16.8852 15.6823 -7.67783 0.0116126 1 
1342 1 -19.7386 15.6433 -7.97614 0.00609093 1 
1343 1 -18.5162 17.6779 -6.42924 0.0143036 1 
1344 1 -18.542 14.9802 -5.48105 0.0324864 1 
1345 1 -17.3357 17.0203 -3.9437 0.0672718 1 
1346 1 -20.1569 16.9894 -4.23025 0.0413713 1 
1347 1 -18.8444 18.9891 -2.56045 6.90387 5 
1348 1 -18.9544 16.3277 -1.7248 7.25071 5 
1349 1 -20.4925 18.1668 -0.503418 7.21535 5 
1380 1 -18.9254 10.2552 -14.4787 0.000918593 1 
1381 1 -21.784 10.1982 -14.7812 0.00090347 1 
1382 1 -20.5476 12.2515 -13.2402 0.000956286 1 
1383 1 -20.5685 9.53443 -12.2743 0.00228023 1 
1384 1 -19.3376 11.5876 -10.7381 0.00206593 1 
1385 1 -22.1978 11.5411 -11.0499 0.00212033 1 
1386 1 -20.9669 13.5948 -9.51409 0.0031863 1 
1387 1 -20.9857 10.8877 -8.54762 0.00603763 1 
1388 1 -19.7576 12.9402 -7.01494 0.0197392 1 
1389 1 -22.6306 12.9015 -7.343 0.00960544 1 
1390 1 -21.3866 14.9535 -5.80002 0.0188187 1 
1391 1 -21.4305 12.2643 -4.89245 0.0939309 1 
1392 1 -20.1808 14.3031 -3.3279 5.16596 5 
1393 1 -23.0448 14.2458 -3.67367 0.135425 1 
1394 1 -21.7942 16.2188 -2.04178 0.0978324 1 
1395 1 -21.8101 13.5741 -1.26435 10.3132 5 
224237 2 31.2721 29.3574 1.30321 8.7111 5 
1420 1 -23.4303 9.48367 -12.5842 0.00224416 1 
1422 1 -22.2121 8.82849 -10.0863 0.00736056 1 
1424 1 -23.8569 10.8434 -8.87748 0.00631236 1 
1426 1 -22.6602 10.2047 -6.40093 0.0211253 1 
1427 1 -25.5229 10.1533 -6.70661 0.0116441 1 
1428 1 -24.2888 12.1941 -5.15009 0.0110189 1 
1429 1 -24.3383 9.52485 -4.2223 0.109012 1 
1430 1 -23.0717 11.5511 -2.68477 5.77047 5 
1431 1 -25.9612 11.4734 -2.9709 0.140185 1 
1432 1 -24.5961 13.4922 -1.49788 6.05351 5 
1433 1 -24.7598 10.8613 -0.55921 7.1184 5 
1462 1 -27.7265 10.6522 -0.762745 7.67478 5 
1495 1 -0.283826 43.0816 -6.83399 0.0117639 1 
1496 1 -0.693679 44.3389 -2.97229 6.27896 5 
1508 1 -0.717172 35.6718 -14.9366 0.000472605 1 
1509 1 -2.33735 37.6586 -13.6809 0.00059873 1 
1510 1 -1.09514 39.7094 -12.1313 0.00113936 1 
1511 1 -1.10058 37.0026 -11.1785 0.00125192 1 
1512 1 -2.73127 38.9928 -9.94025 0.00229416 1 
1513 1 -1.49431 41.0429 -8.39097 0.00576821 1 
1514 1 -1.49316 38.3408 -7.45278 0.00564914 1 
1515 1 -0.252967 40.3827 -5.8878 0.0225052 1 
1516 1 -3.13193 40.3315 -6.22806 0.0273117 1 
1517 1 -1.90054 42.3628 -4.63522 0.0562441 1 
1518 1 -1.9215 39.6552 -3.79352 0.116773 1 
1519 1 -0.702947 41.6773 -2.16504 6.75158 5 
1520 1 -3.50483 41.6035 -2.44912 7.30644 5 
1559 1 -3.59938 32.9006 -14.2768 0.000470183 1 
1560 1 -2.3497 34.9511 -12.7274 0.00074024 1 
1561 1 -5.22124 34.8862 -13.0215 0.000615359 1 
1562 1 -3.97525 36.9386 -11.4804 0.000998012 1 
1563 1 -3.9855 34.232 -10.5261 0.00141136 1 
1564 1 -2.73727 36.2864 -8.98974 0.00196978 1 
1565 1 -5.61687 36.2153 -9.28514 0.00202774 1 
1566 1 -4.37383 38.2729 -7.76207 0.00636119 1 
1567 1 -4.3809 35.5684 -6.80491 0.00549374 1 
1568 1 -3.14859 37.6195 -5.30359 0.0224999 1 
1569 1 -6.01456 37.5406 -5.58049 0.0228724 1 
1570 1 -4.77133 39.6096 -4.07707 0.118322 1 
1571 1 -4.78275 36.8792 -3.15746 4.94372 5 
1572 1 -3.55508 38.9287 -1.67801 4.99085 5 
1573 1 -6.34399 38.7567 -1.88036 6.64963 5 
1574 1 -5.18421 40.6328 -0.227588 8.34696 5 
1639 1 -6.46691 32.8369 -14.567 0.000378034 1 
1640 1 -6.48432 30.1311 -13.6126 0.000468123 1 
1641 1 -5.23582 32.1794 -12.0647 0.00087341 1 
1642 1 -8.10872 32.1137 -12.3518 0.000687532 1 
1643 1 -6.86255 34.1624 -10.8152 0.00115784 1 
1644 1 -6.87537 31.4585 -9.85538 0.00201803 1 
1645 1 -5.62341 33.5131 -8.32819 0.00432939 1 
1646 1 -8.50157 33.4358 -8.60698 0.00264122 1 
1647 1 -7.25387 35.4842 -7.08536 0.00541049 1 
1648 1 -7.24094 32.7926 -6.11577 0.0265546 1 
1649 1 -6.00227 34.8399 -4.59877 0.0964894 1 
1650 1 -8.8753 34.7518 -4.89152 0.0289387 1 
1651 1 -7.60487 36.7592 -3.34592 7.34353 5 
1652 1 -7.52205 34.1463 -2.37221 6.26911 5 
1653 1 -9.19598 36.0053 -1.17815 7.19295 5 
1730 1 -9.35125 30.0693 -13.9019 0.000378713 1 
1731 1 -9.3673 27.3664 -12.9559 0.000588256 1 
1732 1 -8.1257 29.4102 -11.3969 0.00092115 1 
1733 1 -10.9954 29.3468 -11.6835 0.000881853 1 
1734 1 -9.75414 31.3882 -10.1359 0.001407 1 
1735 1 -9.7693 28.6867 -9.17728 0.00514674 1 
1736 1 -8.51887 30.7363 -7.64633 0.00730112 1 
1737 1 -11.4108 30.6545 -7.92167 0.00653215 1 
1738 1 -10.1499 32.7085 -6.41701 0.0135936 1 
1739 1 -10.1961 29.9981 -5.46026 0.0387398 1 
1740 1 -8.9047 32.0791 -3.98837 0.135555 1 
1741 1 -11.8144 31.963 -4.22727 0.0691575 1 
1742 1 -10.4472 34.0236 -2.71429 0.256352 1 
1743 1 -10.6085 31.3078 -1.88069 2.0259 5 
1744 1 -8.91363 33.3488 -0.204596 7.06927 5 
1745 1 -11.7743 33.4056 -0.449715 6.61926 5 
1819 1 -10.6085 25.3226 -14.5242 0.000510389 1 
1820 1 -13.4741 25.265 -14.8218 0.000511725 1 
1821 1 -12.2347 27.3076 -13.2503 0.000567568 1 
1822 1 -12.2536 24.6045 -12.3235 0.00141159 1 
1823 1 -11.0134 26.6479 -10.7498 0.00165146 1 
1824 1 -13.8844 26.5857 -11.04 0.0014303 1 
1825 1 -12.6469 28.6187 -9.46768 0.00274841 1 
1826 1 -12.6729 25.9204 -8.54978 0.00709286 1 
1827 1 -11.4316 27.9489 -6.97239 0.018517 1 
1828 1 -14.2951 27.8748 -7.23528 0.00392012 1 
1829 1 -13.074 29.8964 -5.68274 0.0228014 1 
1830 1 -13.0707 27.1678 -4.71989 0.0422661 1 
1831 1 -11.8567 29.1898 -3.22589 0.174894 1 
1832 1 -14.7148 29.0911 -3.4176 0.137031 1 
1833 1 -13.4858 31.1297 -2.07488 1.83931 5 
1834 1 -13.3954 28.4089 -0.818224 3.99755 5 
1903 1 -13.4949 22.5583 -13.8943 0.000869152 1 
1904 1 -16.3625 22.5014 -14.1899 0.000837329 1 
1905 1 -15.1227 24.5465 -12.6172 0.00119582 1 
1906 1 -15.1483 21.8383 -11.7052 0.00231202 1 
1907 1 -13.9104 23.8833 -10.1336 0.00448396 1 
1908 1 -16.7767 23.8253 -10.414 0.00233572 1 
1909 1 -15.5353 25.8561 -8.82262 0.0024165 1 
1910 1 -15.5753 23.1555 -7.94244 0.010971 1 
1911 1 -14.3257 25.1751 -6.32222 0.0261905 1 
1912 1 -17.1769 25.1089 -6.59281 0.0079473 1 
1913 1 -15.9425 27.1169 -5.01168 0.00777533 1 
1914 1 -15.9542 24.3861 -4.08171 0.251442 1 
1915 1 -14.7292 26.3901 -2.51184 0.429249 1 
1916 1 -17.5831 26.3042 -2.79157 0.0228443 1 
1917 1 -16.3673 28.2748 -1.25961 0.160552 1 
1918 1 -16.3666 25.4512 -0.309823 7.25228 5 
1978 1 -17.6304 17.7395 -14.8289 0.000611829 1 
1979 1 -16.3884 19.7901 -13.2691 0.00109562 1 
1980 1 -19.2554 19.7354 -13.5587 0.00101062 1 
1981 1 -18.0159 21.7834 -11.9916 0.00162861 1 
1982 1 -18.047 19.0707 -11.0831 0.00239017 1 
1983 1 -16.8115 21.1162 -9.52093 0.00519465 1 
1984 1 -19.6726 21.0641 -9.79201 0.00274547 1 
1985 1 -18.43 23.0965 -8.20321 0.00312357 1 
1986 1 -18.4773 20.3898 -7.32888 0.0122737 1 
1987 1 -17.2284 22.4074 -5.73024 0.0143155 1 
1988 1 -20.072 22.3521 -5.97899 0.00254096 1 
1989 1 -18.8135 24.3396 -4.37653 0.00876564 1 
1990 1 -18.8566 21.6312 -3.49271 0.20003 1 
1991 1 -17.5928 23.5619 -1.89947 6.57343 5 
1992 1 -20.4351 23.5674 -2.16152 0.0354427 1 
1993 1 -19.184 25.4851 -0.523422 0.0839331 1 
2043 1 -20.5229 14.9684 -14.1868 0.000725387 1 
2044 1 -19.2843 17.021 -12.6373 0.00124741 1 
2045 1 -22.1498 16.969 -12.9205 0.00113901 1 
2046 1 -20.9112 19.02 -11.3622 0.0016921 1 
2047 1 -20.942 16.3075 -10.4492 0.00239507 1 
2048 1 -19.7089 18.3534 -8.89506 0.00411359 1 
2049 1 -22.5669 18.3076 -9.16317 0.00248088 1 
2050 1 -21.3225 20.3424 -7.58237 0.00285743 1 
2051 1 -21.3646 17.6436 -6.69863 0.00705039 1 
2052 1 -20.1121 19.6552 -5.09772 0.0188711 1 
2053 1 -22.9655 19.62 -5.37794 0.00723135 1 
2054 1 -21.7075 21.6088 -3.75868 0.0166605 1 
2055 1 -21.7452 18.9267 -2.91858 0.0560849 1 
2056 1 -20.4028 20.8504 -1.26266 0.236572 1 
2057 1 -23.3071 20.8393 -1.52493 0.0815439 1 
2098 1 -23.3882 14.9144 -14.4713 0.000769301 1 
2099 1 -23.4121 12.1996 -13.5355 0.00105704 1 
2100 1 -22.1769 14.255 -11.9942 0.00142222 1 
2101 1 -25.0439 14.2031 -12.2719 0.00143713 1 
2102 1 -23.8065 16.2587 -10.7234 0.00194177 1 
2103 1 -23.835 13.5499 -9.80662 0.00298649 1 
2104 1 -22.5991 15.6028 -8.262 0.00476139 1 
2105 1 -25.4639 15.5501 -8.52339 0.00344816 1 
2106 1 -24.2187 17.5946 -6.95855 0.0027031 1 
2107 1 -24.2606 14.8977 -6.07805 0.0176552 1 
2108 1 -23.0161 16.9255 -4.49079 0.0144954 1 
2109 1 -25.8636 16.8749 -4.74235 0.015633 1 
2110 1 -24.5944 18.8946 -3.17464 0.0471323 1 
2111 1 -24.659 16.1632 -2.28074 7.05735 5 
2112 1 -23.3578 18.13 -0.774246 4.01103 5 
2113 1 -26.1945 18.0879 -1.00542 6.57487 5 
2146 1 -26.2794 12.1449 -13.8143 0.00116277 1 
2148 1 -25.0679 11.4919 -11.3449 0.00253519 1 
2149 1 -27.9381 11.434 -11.6101 0.00220923 1 
2150 1 -26.7027 13.4948 -10.0709 0.00224356 1 
2151 1 -26.7304 10.7894 -9.15668 0.00487497 1 
2152 1 -25.4947 12.8463 -7.61566 0.00353982 1 
2153 1 -28.3592 12.7853 -7.86086 0.00297721 1 
2154 1 -27.1128 14.8392 -6.31113 0.00679208 1 
2155 1 -27.1463 12.1412 -5.41595 0.00911502 1 
2156 1 -25.8967 14.1811 -3.86513 0.0718696 1 
2157 1 -28.7188 14.1272 -4.0898 0.0452543 1 
2158 1 -27.4707 16.1077 -2.44707 6.81887 5 
2159 1 -27.3795 13.473 -1.59509 6.29031 5 
2160 1 -29.1815 15.3991 -0.270063 9.37209 5 
2189 1 -29.6 10.7214 -9.39756 0.00383994 1 
2193 1 -30.0027 12.0675 -5.63528 0.00677324 1 
2195 1 -28.7857 11.4391 -3.19303 0.146496 1 
2197 1 -30.2769 13.4109 -1.94634 2.0631 5 
2260 1 -0.305144 48.5173 -8.6955 0.00866572 1 
2261 1 -0.713529 49.8096 -4.8822 0.04427 1 
2262 1 -1.21191 51.1463 -1.19232 8.26535 5 
2274 1 -1.08922 45.1286 -14.012 0.000959912 1 
2275 1 -1.09316 42.4183 -13.0746 0.00106553 1 
2276 1 -2.73038 44.4103 -11.796 0.00177852 1 
2277 1 -1.5143 46.4606 -10.2405 0.00356385 1 
2278 1 -1.50876 43.7491 -9.31776 0.00439052 1 
2279 1 -0.307638 45.7951 -7.76918 0.0140424 1 
2280 1 -3.14206 45.731 -8.00071 0.00570729 1 
2281 1 -1.9257 47.766 -6.42233 0.0137633 1 
2282 1 -1.91339 45.0551 -5.51452 0.0227805 1 
2283 1 -0.688691 47.0607 -3.90437 0.110139 1 
2284 1 -3.49462 46.9725 -4.14342 0.0241849 1 
2285 1 -2.25115 48.957 -2.57598 0.242326 1 
2286 1 -2.19015 46.1892 -1.58215 6.55089 5 
2287 1 -3.69562 48.0994 -0.305647 5.34413 5 
2327 1 -2.32743 40.3678 -14.6261 0.000572784 1 
2328 1 -5.194 40.3064 -14.9041 0.000559154 1 
2329 1 -3.95828 42.359 -13.3516 0.00102834 1 
2330 1 -3.96636 39.6488 -12.4214 0.00109778 1 
2331 1 -2.73049 41.7013 -10.8725 0.00230486 1 
2332 1 -5.59786 41.6395 -11.1412 0.00208988 1 
2333 1 -4.36458 43.69 -9.57805 0.00343938 1 
2334 1 -4.36755 40.9837 -8.67867 0.00663543 1 
2335 1 -3.13488 43.0289 -7.10652 0.0121568 1 
2336 1 -5.99168 42.9601 -7.35977 0.00687532 1 
2337 1 -4.73521 44.9759 -5.74027 0.016479 1 
2338 1 -4.75996 42.2887 -4.90072 0.0304032 1 
2339 1 -3.46465 44.2671 -3.22046 7.48645 5 
2340 1 -6.3399 44.1993 -3.53029 0.0368972 1 
2341 1 -5.04228 46.1395 -1.86306 0.148397 1 
2342 1 -5.05059 43.3926 -1.10196 6.28867 5 
2409 1 -5.20753 37.596 -13.9672 0.00056186 1 
2410 1 -8.07657 37.5328 -14.238 0.000561504 1 
2411 1 -6.83634 39.5853 -12.6914 0.00102193 1 
2412 1 -6.85002 36.8728 -11.7598 0.00101134 1 
2413 1 -5.6079 38.9274 -10.2225 0.0023321 1 
2414 1 -8.47937 38.8595 -10.4796 0.00160905 1 