ITEM: TIMESTEP
0
ITEM: NUMBER OF ATOMS
59513
ITEM: BOX BOUNDS xy xz yz pp pp ss
-5.6617286608000001e+01 1.9816050312799999e+02 -5.6617286608000001e+01
0.0000000000000000e+00 1.6760206698400000e+02 0.0000000000000000e+00
-1.0448010801076290e+02 1.1070493036057802e+02 0.0000000000000000e+00
ITEM: ATOMS id type x y z c_csym c_cna 
1 1 54.9918 0.226999 -3.39984 0.15054 1 
2 1 53.5838 0.0482722 -0.86893 2.91307 5 
3 1 -13.9953 167.033 -0.575054 2.95332 5 
4 1 -11.296 167.588 -5.38157 0.0156886 1 
5 1 -12.6025 167.285 -2.94933 0.0588423 1 
6 1 -10.2478 166.102 -1.78463 0.0890762 1 
7 1 -7.65148 166.651 -6.76091 0.00811364 1 
8 1 -8.93923 166.346 -4.26732 0.016362 1 
9 1 50.1774 0.105135 -4.39645 0.0154293 1 
10 1 -7.74978 167.465 -1.90101 0.096956 1 
11 1 -6.61361 165.12 -3.1183 0.0495096 1 
12 1 -7.97416 164.923 -0.644795 2.63436 5 
13 1 -5.48781 166.289 -0.762407 2.60736 5 
14 1 -5.09335 167.305 -11.781 0.00133582 1 
15 1 -6.37105 166.977 -9.26507 0.00344138 1 
16 1 -4.02426 165.725 -8.18099 0.00380128 1 
17 1 -5.31296 165.402 -5.64272 0.0169133 1 
18 1 -2.8028 166.75 -5.78333 0.0206221 1 
19 1 -4.13954 166.481 -3.26681 0.0404985 1 
20 1 -2.99721 164.153 -4.50535 0.0606051 1 
21 1 -4.27837 163.939 -1.90347 0.243193 1 
22 1 -1.8553 165.279 -2.1514 2.05943 5 
23 1 52.8017 0.0287494 -14.3077 0.000383696 1 
24 1 -1.46304 166.374 -13.2662 0.000423217 1 
25 1 -2.74278 166.052 -10.7203 0.00207946 1 
26 1 -0.226208 167.391 -10.8755 0.00167547 1 
27 1 -1.50472 167.076 -8.31325 0.0135178 1 
28 1 -0.407652 164.801 -9.67474 0.00290549 1 
29 1 -1.69571 164.479 -7.09804 0.00749352 1 
30 1 -0.49082 165.487 -4.68458 0.100652 1 
31 1 -0.699779 162.916 -3.36673 1.63094 5 
33 1 -23.678 166.724 -1.66449 0.363391 1 
34 1 -21.0866 167.365 -6.8849 0.0263968 1 
35 1 -22.3782 167.034 -4.2998 0.0362942 1 
36 1 -20.0275 165.826 -3.28546 5.78183 5 
37 1 -19.0486 164.222 -0.425146 11.1625 5 
38 1 36.8232 0.0952912 -9.45223 0.0125772 1 
39 1 -17.4532 166.451 -8.49866 0.0177541 1 
40 1 -18.7599 166.123 -5.96079 0.0552419 1 
41 1 -16.2331 167.478 -6.1973 0.181246 1 
42 1 -17.5489 167.131 -3.64729 5.84079 5 
43 1 -16.3418 164.879 -5.10591 0.139338 1 
44 1 -17.637 164.525 -2.72323 6.28545 5 
45 1 -15.1387 165.924 -2.79492 0.341971 1 
46 1 -16.8022 165.829 -0.533038 8.40344 5 
47 1 -15.2809 163.411 -1.54849 0.247215 1 
48 1 -14.8633 167.112 -13.5368 0.00195984 1 
49 1 -16.1541 166.782 -11.0184 0.00711721 1 
50 1 -13.7783 165.525 -10.0267 0.00582232 1 
51 1 -15.0598 165.198 -7.54709 0.0221901 1 
52 1 -12.5326 166.55 -7.69881 0.011358 1 
53 1 -13.8191 166.226 -5.23933 0.0309823 1 
54 1 -12.6785 163.938 -6.48676 0.00898457 1 
55 1 -13.9671 163.635 -4.00928 0.0164672 1 
56 1 -11.4469 164.988 -4.13911 0.017395 1 
57 1 -12.7599 164.745 -1.67005 0.0857047 1 
58 1 -11.6097 162.412 -2.86844 0.0484928 1 
59 1 -12.9939 162.197 -0.438012 2.67524 5 
60 1 -10.4803 163.56 -0.537849 2.6485 5 
63 1 -12.4973 165.857 -12.5268 0.00196469 1 
64 1 -9.97437 167.213 -12.6776 0.00182992 1 
65 1 -11.2535 166.882 -10.1786 0.00486333 1 
66 1 -10.1314 164.601 -11.4892 0.00199216 1 
67 1 -11.4048 164.266 -8.98123 0.00466985 1 
68 1 -8.88759 165.623 -9.12481 0.00409081 1 
69 1 -10.1623 165.294 -6.62493 0.00849544 1 
70 1 -9.04626 163.019 -7.8903 0.00447652 1 
71 1 -10.3152 162.698 -5.36514 0.0122341 1 
72 1 -7.81054 164.05 -5.49922 0.0138972 1 
73 1 -9.10154 163.765 -2.9865 0.052644 1 
74 1 -7.96307 161.472 -4.19057 0.0439814 1 
75 1 -9.23746 161.234 -1.64835 0.154411 1 
76 1 -6.73682 162.586 -1.76036 0.168315 1 
81 1 -8.85515 164.934 -14.0074 0.000702119 1 
82 1 -6.33511 166.285 -14.1576 0.000548071 1 
83 1 -7.61231 165.955 -11.6363 0.00163405 1 
84 1 -6.49972 163.682 -12.9593 0.000640843 1 
85 1 -7.77539 163.351 -10.4242 0.00184993 1 
86 1 -5.26028 164.703 -10.5736 0.00152165 1 
87 1 -6.53711 164.374 -8.03533 0.00431551 1 
88 1 -5.43425 162.112 -9.34783 0.00304889 1 
89 1 -6.70592 161.788 -6.77207 0.00807536 1 
90 1 -4.20667 163.137 -6.93184 0.00828347 1 
91 1 -5.47218 162.815 -4.32738 0.0534404 1 
92 1 -4.3851 160.567 -5.67347 0.0195228 1 
93 1 -5.65517 160.206 -3.034 0.178619 1 
94 1 -3.17033 161.545 -3.18715 0.198261 1 
95 1 -3.37124 158.89 -1.91242 7.59649 5 
105 1 -3.98155 165.031 -13.1115 0.000548376 1 
106 1 -2.87021 162.76 -14.4567 0.000318618 1 
107 1 -4.15341 162.436 -11.907 0.00103935 1 
108 1 -1.63649 163.781 -12.0684 0.000968379 1 
109 1 -2.92244 163.459 -9.50782 0.00270062 1 
110 1 -1.81263 161.194 -10.8693 0.0040896 1 
111 1 -3.10667 160.882 -8.28868 0.0141576 1 
112 1 -0.590962 162.219 -8.46636 0.0249933 1 
113 1 -1.89265 161.917 -5.85226 0.0999759 1 
114 1 -0.784524 159.633 -7.31902 0.050838 1 
115 1 -2.06517 159.371 -4.61915 0.299286 1 
116 1 -0.882641 160.308 -1.97129 7.13607 5 
117 1 0.914803 156.868 -0.548868 8.5739 5 
128 1 -0.34978 164.102 -14.6183 0.000310521 1 
129 1 -0.520741 161.51 -13.4286 0.000979298 1 
132 1 -37.0789 167.318 -2.36258 4.87531 5 
133 1 -33.35 166.397 -3.74665 0.029529 1 
134 1 -34.678 166.125 -1.28798 0.181185 1 
135 1 -32.1538 167.482 -1.39438 0.106519 1 
136 1 -30.7957 167.086 -8.74475 0.00405001 1 
137 1 -32.0664 166.737 -6.23677 0.00853012 1 
138 1 -29.7206 165.496 -5.10517 0.00841672 1 
139 1 -31.0177 165.165 -2.58112 0.0650868 1 
140 1 -28.4956 166.546 -2.71886 0.0501845 1 
141 1 -28.6512 163.988 -1.37274 0.146923 1 
142 1 -29.5247 167.437 -11.2625 0.00163409 1 
143 1 -27.1707 166.192 -10.1936 0.0015193 1 
144 1 -28.446 165.844 -7.64971 0.00337252 1 
145 1 -25.9311 167.214 -7.80173 0.00295025 1 
146 1 -27.2124 166.872 -5.25282 0.00740376 1 
147 1 -26.118 164.622 -6.5593 0.0126471 1 
148 1 -27.3915 164.28 -3.95929 0.0343075 1 
149 1 -24.8981 165.67 -4.13409 0.0554371 1 
150 1 -26.1489 165.366 -1.50374 0.176477 1 
151 1 -25.0794 163.091 -2.91121 0.0841692 1 
153 1 -25.8934 166.539 -12.733 0.000662611 1 
154 1 -24.6521 167.558 -10.347 0.00162747 1 
155 1 -23.5472 165.3 -11.6858 0.00153571 1 
156 1 -24.8321 164.959 -9.13068 0.00346186 1 
157 1 -22.3143 166.328 -9.29473 0.00527141 1 
158 1 -23.6008 165.993 -6.72677 0.0091835 1 
159 1 -22.4969 163.732 -8.10823 0.0131512 1 
160 1 -23.8051 163.4 -5.54855 0.0477941 1 
161 1 -21.2691 164.772 -5.70233 0.115349 1 
162 1 -22.6128 164.439 -3.17668 0.388371 1 
163 1 -21.4676 162.15 -4.66181 0.262034 1 
164 1 -22.6956 162.002 -1.7924 6.32764 5 
165 1 -20.2345 163.182 -2.50893 5.80418 5 
166 1 -20.28 160.686 -1.31937 6.11904 5 
170 1 -22.2624 165.639 -14.2299 0.000567079 1 
171 1 -19.7402 166.999 -14.388 0.000808906 1 
172 1 -21.0264 166.664 -11.8465 0.00230319 1 
173 1 -19.9112 164.395 -13.2088 0.000877924 1 
174 1 -21.203 164.06 -10.6678 0.00336527 1 
175 1 -18.6803 165.421 -10.8433 0.00382757 1 
176 1 -19.9804 165.089 -8.29857 0.0168939 1 
177 1 -18.838 162.811 -9.69073 0.00716632 1 
178 1 -20.1424 162.48 -7.17975 0.0341688 1 
179 1 -17.595 163.837 -7.38134 0.034528 1 
180 1 -18.8978 163.507 -4.92815 0.237345 1 
181 1 -17.7275 161.226 -6.20737 0.0241994 1 
182 1 -19.0086 160.909 -3.76374 0.0996199 1 
183 1 -16.4788 162.269 -3.89412 0.0412508 1 
184 1 -17.7758 161.99 -1.46541 0.218907 1 
185 1 -16.6456 159.682 -2.63893 0.0492662 1 
186 1 -18.0337 159.431 -0.225194 2.57623 5 
187 1 -15.5153 160.833 -0.329384 2.68563 5 
195 1 -17.3878 165.754 -13.3747 0.00116214 1 
196 1 -16.263 163.48 -14.7259 0.000535187 1 
197 1 -17.5479 163.145 -12.205 0.00184755 1 
198 1 -15.0219 164.501 -12.3694 0.00200164 1 
199 1 -16.3063 164.168 -9.86521 0.00738227 1 
200 1 -15.1744 161.889 -11.1837 0.0025961 1 
201 1 -16.4499 161.553 -8.68359 0.00781668 1 
202 1 -13.9252 162.91 -8.83488 0.0058324 1 
203 1 -15.1983 162.581 -6.35173 0.0142728 1 
204 1 -14.0743 160.302 -7.6083 0.00609881 1 
205 1 -15.3473 159.98 -5.10985 0.0131504 1 
206 1 -12.8299 161.343 -5.2355 0.0107387 1 
207 1 -14.1292 161.06 -2.74956 0.0404609 1 
208 1 -12.9933 158.763 -3.94986 0.02314 1 
209 1 -14.2831 158.519 -1.43768 0.145915 1 
210 1 -11.7581 159.881 -1.54451 0.144258 1 
220 1 -13.7393 164.835 -14.8854 0.00062058 1 
222 1 -13.8976 162.226 -13.6991 0.000869359 1 
223 1 -11.3759 163.581 -13.8548 0.000813803 1 
224 1 -12.6518 163.245 -11.3385 0.00226706 1 
225 1 -11.5352 160.976 -12.6525 0.000932526 1 
226 1 -12.8063 160.638 -10.1253 0.00248244 1 
227 1 -10.2899 161.995 -10.2746 0.00208478 1 
228 1 -11.5587 161.662 -7.74818 0.00470243 1 
229 1 -10.4528 159.401 -9.03948 0.00269547 1 
230 1 -11.7201 159.07 -6.48799 0.00651475 1 
231 1 -9.21038 160.432 -6.62721 0.00733079 1 
232 1 -10.4748 160.122 -4.07036 0.0318725 1 
233 1 -9.39236 157.849 -5.37248 0.0142745 1 
234 1 -10.6959 157.528 -2.8025 0.0535707 1 
235 1 -8.1722 158.874 -2.92259 0.0940504 1 
236 1 -8.41871 156.28 -1.68158 3.31451 5 
253 1 -9.01731 162.33 -12.8064 0.000800403 1 
254 1 -7.90633 160.064 -14.138 0.000406396 1 
255 1 -9.18206 159.733 -11.591 0.0011205 1 
256 1 -6.66827 161.087 -11.7483 0.00112347 1 
257 1 -7.9424 160.759 -9.19109 0.00288866 1 
258 1 -6.83859 158.5 -10.5337 0.00245948 1 
259 1 -8.11535 158.178 -7.95808 0.0061222 1 
260 1 -5.60903 159.535 -8.11821 0.00615565 1 
261 1 -6.88604 159.216 -5.51731 0.02102 1 
262 1 -5.78269 156.965 -6.92203 0.0130086 1 
263 1 -7.06879 156.643 -4.32484 0.0517148 1 
264 1 -4.56445 158.011 -4.47888 0.0988267 1 
265 1 -5.90342 157.571 -1.8056 4.55961 5 
266 1 -4.73595 155.463 -3.37571 6.99331 5 
267 1 -4.15467 154.051 -0.465927 10.0728 5 
268 1 -1.62442 155.486 -0.534608 9.89889 5 
286 1 -5.38871 161.414 -14.2969 0.000361733 1 
288 1 -5.55804 158.822 -13.0958 0.000966068 1 
289 1 -3.04061 160.168 -13.2609 0.00096457 1 
290 1 -4.32776 159.85 -10.6998 0.00329052 1 
291 1 -3.20914 157.58 -12.0733 0.00181376 1 
292 1 -4.49651 157.272 -9.50439 0.00720493 1 
293 1 -1.98741 158.61 -9.69004 0.0080881 1 
294 1 -3.27804 158.319 -7.08375 0.0362196 1 
295 1 -2.13923 156.034 -8.53157 0.0132072 1 
296 1 -3.43166 155.749 -5.96742 0.0554879 1 
297 1 -0.929972 157.075 -6.16715 0.049094 1 
298 1 -2.23148 156.798 -3.55228 5.53471 5 
299 1 -1.048 154.483 -5.11511 0.220253 1 
300 1 -2.43006 154.176 -2.72769 6.31376 5 
323 1 -1.92032 157.897 -14.623 0.000394818 1 
324 1 -0.688556 158.92 -12.2463 0.00145411 1 
325 1 -0.845682 156.332 -11.0734 0.00246519 1 
344 1 -46.7302 167.184 -3.62318 0.293276 1 
345 1 -48.1568 167.043 -1.0353 7.85802 5 
346 1 -45.4801 167.502 -6.23952 0.0403924 1 
347 1 -43.1443 166.29 -5.1725 0.0927926 1 
348 1 -44.3607 165.974 -2.49393 5.6415 5 
349 1 -41.8691 167.296 -2.54462 6.11604 5 
350 1 -42.1088 165.197 -0.613033 7.66171 5 
351 1 -40.6095 166.92 -10.4191 0.00490205 1 
352 1 -41.8974 166.588 -7.8421 0.0327962 1 
353 1 -40.6669 167.584 -5.50451 0.39105 1 
354 1 -39.525 165.33 -6.90678 0.101861 1 
355 1 -40.752 165.147 -4.14864 10.2057 5 
356 1 -38.2354 166.325 -4.65776 6.45708 5 
357 1 -39.4835 166.714 -0.683061 11.1551 5 
358 1 -38.3866 163.777 -3.51147 6.33434 5 
359 1 -39.7896 163.837 -1.20089 11.2271 5 
360 1 -37.2233 164.855 -1.18375 5.79553 5 
362 1 -39.3209 167.258 -12.9707 0.0012538 1 
363 1 -36.9478 165.997 -11.9727 0.00182949 1 
364 1 -38.233 165.659 -9.44712 0.00559467 1 
365 1 -35.6984 166.996 -9.63897 0.0065654 1 
366 1 -36.9781 166.657 -7.14042 0.0196478 1 
367 1 -35.8351 164.389 -8.44255 0.0129529 1 
368 1 -37.1013 164.053 -5.96364 0.0733931 1 
369 1 -34.5848 165.385 -6.09367 0.0161283 1 
370 1 -35.8796 165.066 -3.61395 0.061067 1 
371 1 -34.7579 162.788 -4.81584 0.0185052 1 
372 1 -36.1337 162.462 -2.31273 0.387962 1 
373 1 -33.5606 163.801 -2.44359 0.106073 1 
374 1 -33.7086 161.266 -1.12798 0.289179 1 
376 1 -35.6663 166.339 -14.4967 0.000604093 1 
377 1 -34.4201 167.343 -12.1468 0.00211922 1 
378 1 -33.2951 165.079 -13.4688 0.000999984 1 
379 1 -34.5671 164.732 -10.9495 0.00327403 1 
380 1 -32.0452 166.081 -11.108 0.00231512 1 
381 1 -33.3134 165.73 -8.59487 0.00642852 1 
382 1 -32.2022 163.473 -9.88281 0.00220361 1 
383 1 -33.4712 163.125 -7.34786 0.00475679 1 
384 1 -30.9566 164.479 -7.4977 0.00396392 1 
385 1 -32.2334 164.131 -4.96072 0.0113074 1 
386 1 -31.1249 161.885 -6.22918 0.0062047 1 
387 1 -32.402 161.549 -3.66036 0.0232961 1 
388 1 -29.89 162.904 -3.80266 0.0259985 1 
389 1 -31.1688 162.611 -1.24333 0.151964 1 
390 1 -30.0765 160.294 -2.51303 0.0844045 1 
396 1 -30.7723 166.43 -13.6288 0.000802816 1 
397 1 -29.6575 164.171 -14.9529 0.000323831 1 
398 1 -30.9323 163.823 -12.4182 0.000892696 1 
399 1 -28.4133 165.179 -12.5764 0.000717604 1 
400 1 -29.6869 164.83 -10.0382 0.00179711 1 
401 1 -28.5823 162.578 -11.3586 0.00124361 1 
402 1 -29.8554 162.231 -8.79887 0.00279732 1 
403 1 -27.3464 163.593 -8.96402 0.00358581 1 
404 1 -28.6187 163.248 -6.3876 0.00723528 1 
405 1 -27.5207 161 -7.73278 0.00457994 1 
406 1 -28.7926 160.66 -5.13025 0.00979563 1 
407 1 -26.2928 162.029 -5.32103 0.00922897 1 
408 1 -27.5784 161.668 -2.70043 0.116059 1 
409 1 -26.4517 159.453 -4.05552 0.449613 1 
410 1 -27.756 159.035 -1.31362 5.68384 5 
411 1 -25.2215 160.618 -1.58526 5.98859 5 
412 1 -25.2659 157.954 -1.08906 7.83943 5 
422 1 -27.3036 162.922 -13.907 0.000438285 1 
423 1 -24.7836 164.28 -14.0691 0.00046365 1 
424 1 -26.0659 163.937 -11.5224 0.0012412 1 
425 1 -24.9542 161.679 -12.8705 0.000899791 1 
426 1 -26.241 161.339 -10.314 0.00264831 1 
427 1 -23.7234 162.699 -10.4899 0.00297007 1 
428 1 -25.0176 162.361 -7.92577 0.00976796 1 
429 1 -23.8943 160.099 -9.30353 0.0130381 1 
430 1 -25.181 159.775 -6.69972 0.102323 1 
431 1 -22.674 161.126 -6.95559 0.0443319 1 
432 1 -23.9387 160.848 -4.2877 0.420998 1 
433 1 -22.7881 158.523 -5.87936 0.175727 1 
434 1 -24.0477 158.208 -3.45964 0.956478 1 
435 1 -21.5327 159.582 -3.59221 0.548603 1 
436 1 -22.7938 159.327 -1.20708 5.64947 5 
437 1 -21.7294 156.968 -2.36602 0.0655506 1 
451 1 -22.4336 163.036 -13.0403 0.000916137 1 
452 1 -21.311 160.77 -14.3943 0.000364103 1 
453 1 -22.5995 160.434 -11.8557 0.00183758 1 
454 1 -20.0743 161.789 -12.0333 0.00140801 1 
455 1 -21.3689 161.455 -9.50205 0.00575378 1 
456 1 -20.2251 159.181 -10.8574 0.00380894 1 
457 1 -21.5071 158.848 -8.35364 0.0205631 1 
458 1 -18.9789 160.201 -8.52239 0.0118331 1 
459 1 -20.2586 159.873 -6.04731 0.0575116 1 
460 1 -19.1185 157.587 -7.31507 0.00855632 1 
461 1 -20.4057 157.273 -4.82712 0.0107546 1 
462 1 -17.8723 158.618 -4.97502 0.0164711 1 
463 1 -19.1879 158.333 -2.50261 0.0432884 1 
464 1 -18.0407 156.037 -3.70321 0.0198653 1 
465 1 -19.3487 155.79 -1.22323 0.278076 1 
466 1 -16.8113 157.147 -1.33072 0.184654 1 
483 1 -18.7871 162.125 -14.562 0.000403104 1 
485 1 -18.9442 159.518 -13.3768 0.000897399 1 
486 1 -16.4205 160.872 -13.5398 0.00088543 1 
487 1 -17.6993 160.534 -11.0235 0.00300649 1 
488 1 -16.5752 158.265 -12.3402 0.00120203 1 
489 1 -17.8469 157.924 -9.82039 0.0033881 1 
490 1 -15.3253 159.28 -9.97469 0.00299574 1 
491 1 -16.5947 158.943 -7.46517 0.0074557 1 
492 1 -15.4794 156.678 -8.74151 0.0029169 1 
493 1 -16.7455 156.341 -6.21141 0.00866463 1 
494 1 -14.2311 157.705 -6.35083 0.00684614 1 
495 1 -15.5116 157.395 -3.82914 0.0225375 1 
496 1 -14.3885 155.109 -5.07712 0.0316596 1 
497 1 -15.7438 154.808 -2.54297 0.0634424 1 
498 1 -13.2164 156.167 -2.67488 0.0565368 1 
499 1 -13.4413 153.614 -1.41532 3.19786 5 
520 1 -15.3007 158.604 -14.8687 0.000400629 1 
522 1 -14.0545 159.62 -12.4974 0.00107923 1 
523 1 -12.9418 157.357 -13.8213 0.000470257 1 
524 1 -14.2132 157.019 -11.2803 0.00124145 1 
525 1 -11.697 158.377 -11.4354 0.00115729 1 
526 1 -12.9651 158.04 -8.89057 0.00275371 1 
527 1 -11.8635 155.785 -10.2124 0.00209118 1 
528 1 -13.1283 155.448 -7.64504 0.00422714 1 
529 1 -10.623 156.814 -7.80153 0.00486044 1 
530 1 -11.892 156.477 -5.2237 0.0197437 1 
531 1 -10.7854 154.232 -6.56841 0.0155941 1 
532 1 -11.9945 153.888 -3.94898 0.189196 1 
533 1 -9.54814 155.263 -4.13183 0.0933393 1 
534 1 -10.9297 154.958 -1.54178 3.13192 5 
535 1 -9.5233 152.681 -2.84171 8.21187 5 
561 1 -10.4238 158.712 -13.9796 0.000434507 1 
563 1 -10.5904 156.118 -12.7707 0.000878039 1 
564 1 -8.07402 157.472 -12.9324 0.000901075 1 
565 1 -9.35069 157.145 -10.3721 0.002316 1 
566 1 -8.24342 154.883 -11.7344 0.00187959 1 
567 1 -9.52267 154.561 -9.16505 0.0049278 1 
568 1 -7.00935 155.918 -9.3352 0.00478101 1 
569 1 -8.289 155.6 -6.75068 0.0110537 1 
570 1 -7.17947 153.336 -8.16535 0.0241983 1 
571 1 -8.44768 153.03 -5.56621 0.135327 1 
572 1 -5.94088 154.39 -5.77672 0.099996 1 
573 1 -7.20619 154.08 -3.15414 5.03531 5 
574 1 -6.10601 151.766 -4.81478 6.80629 5 
575 1 -7.00868 152.386 -0.790909 6.66418 5 
576 1 -4.90806 152.802 -2.65457 11.0421 5 
577 1 -5.05779 150.364 -1.47764 7.26833 5 
607 1 -6.96082 155.206 -14.2899 0.000640494 1 
608 1 -4.44109 156.553 -14.4561 0.00052299 1 
609 1 -5.72591 156.235 -11.9017 0.00198565 1 
610 1 -4.60416 153.962 -13.275 0.000962859 1 
611 1 -5.8911 153.648 -10.7282 0.00482812 1 
612 1 -3.36856 154.994 -10.9009 0.00339038 1 
613 1 -4.65682 154.69 -8.34901 0.0175555 1 
614 1 -3.51728 152.397 -9.76285 0.0152776 1 
615 1 -4.8072 152.083 -7.2799 0.0638038 1 
616 1 -2.26838 153.436 -7.43912 0.0788566 1 
617 1 -3.55837 153.134 -5.02592 0.408548 1 
618 1 -2.40823 150.824 -6.25838 0.0442448 1 
619 1 -3.71256 150.543 -3.83849 0.150874 1 
620 1 -1.21076 151.897 -3.9144 0.0695034 1 
621 1 -2.57809 151.696 -1.5219 1.78416 5 
622 1 -1.45339 149.337 -2.61319 0.0950417 1 
656 1 -2.08139 155.305 -13.4418 0.000670416 1 
657 1 -0.955946 153.028 -14.7952 0.000605568 1 
658 1 -2.23559 152.711 -12.2699 0.00299083 1 
659 1 -0.989933 153.74 -9.91239 0.0123456 1 
660 1 -1.13525 151.136 -8.72714 0.0120556 1 
661 1 -0.0603627 149.576 -5.09021 0.055592 1 
716 1 -55.5213 165.43 -2.19253 4.73278 5 
717 1 -55.2743 167.286 -8.19527 0.0120305 1 
718 1 -52.8845 166.031 -7.11573 0.00922063 1 
719 1 -54.1707 165.699 -4.61795 0.051706 1 
720 1 -51.644 167.044 -4.74303 0.0599858 1 
721 1 -53.0081 166.789 -2.3038 4.58748 5 
722 1 -51.8003 164.495 -3.40996 0.136581 1 
723 1 -53.1736 164.288 -0.851639 7.97907 5 
724 1 -50.6668 165.67 -0.944774 7.96392 5 
725 1 -50.3403 166.726 -12.1592 0.00145652 1 
726 1 -51.6099 166.376 -9.63311 0.00399226 1 
727 1 -50.3602 167.378 -7.25335 0.00862447 1 
728 1 -49.2426 165.137 -8.53665 0.00698934 1 
729 1 -50.5159 164.807 -5.97631 0.0210698 1 
730 1 -47.9962 166.157 -6.10542 0.0315177 1 
731 1 -49.2736 165.85 -3.51398 0.193368 1 
732 1 -48.1796 163.596 -4.88849 0.0196202 1 
733 1 -49.46 163.305 -2.29459 4.69034 5 
734 1 -46.9195 164.676 -2.39977 5.05423 5 
735 1 -47.1637 162.4 -0.750779 8.26049 5 
737 1 -49.0693 167.074 -14.6909 0.00044485 1 
738 1 -46.7099 165.819 -13.6463 0.000718143 1 
739 1 -47.9781 165.477 -11.0938 0.00230175 1 
740 1 -45.4677 166.825 -11.254 0.00292259 1 
741 1 -46.7291 166.486 -8.68267 0.0084682 1 
742 1 -45.6275 164.237 -10.0425 0.00425007 1 
743 1 -46.8947 163.908 -7.46468 0.0049519 1 
744 1 -44.3836 165.26 -7.62268 0.0122654 1 
745 1 -45.6622 164.946 -5.03488 0.035572 1 
746 1 -44.5468 162.696 -6.43838 0.222812 1 
747 1 -45.8432 162.444 -3.75083 5.8282 5 
748 1 -43.3082 163.771 -3.98629 6.2497 5 
749 1 -44.644 163.784 -0.739105 8.5867 5 
750 1 -43.4379 161.132 -3.30558 5.96084 5 
751 1 -44.7441 160.998 -0.953806 9.40432 5 
752 1 -42.2518 162.397 -1.07626 10.0084 5 
756 1 -44.1949 167.166 -13.8115 0.000729957 1 
758 1 -44.3569 164.569 -12.613 0.00156725 1 
759 1 -41.8409 165.914 -12.7895 0.00128943 1 
760 1 -43.1229 165.58 -10.2262 0.00579881 1 
761 1 -41.9971 163.318 -11.6057 0.00471384 1 
762 1 -43.2716 163.003 -9.0309 0.044043 1 
763 1 -40.7606 164.329 -9.24211 0.0181813 1 
764 1 -42.0234 164.044 -6.61556 0.180176 1 
765 1 -40.8865 161.733 -8.13086 0.0785774 1 
766 1 -42.1563 161.421 -5.68997 0.372195 1 
767 1 -39.6353 162.761 -5.81546 0.297752 1 
768 1 -40.9156 162.488 -3.41373 6.19385 5 
769 1 -39.8041 160.147 -4.61589 0.0532366 1 
770 1 -41.2036 159.866 -2.2337 2.058 5 
771 1 -38.701 161.181 -2.27115 1.12721 5 
772 1 -38.774 158.722 -0.938826 3.26253 5 
780 1 -40.7148 163.65 -14.1501 0.000566281 1 
781 1 -38.1914 164.994 -14.3245 0.000483207 1 
782 1 -39.4745 164.657 -11.7899 0.00185378 1 
783 1 -38.3423 162.388 -13.1393 0.00162212 1 
784 1 -39.6156 162.054 -10.6233 0.00952374 1 
785 1 -37.0912 163.391 -10.7872 0.00527071 1 
786 1 -38.3604 163.059 -8.28739 0.0312956 1 
787 1 -37.2389 160.782 -9.58018 0.00446292 1 
788 1 -38.5094 160.457 -7.07594 0.0113452 1 
789 1 -35.9867 161.782 -7.2082 0.00985889 1 
790 1 -37.2834 161.471 -4.70156 0.0374104 1 
791 1 -36.1566 159.194 -5.95448 0.00779835 1 
792 1 -37.4525 158.903 -3.44317 0.0513121 1 
793 1 -34.9274 160.217 -3.5417 0.0323148 1 
794 1 -36.2611 159.975 -1.0331 1.17601 5 
795 1 -35.1734 157.633 -2.24295 0.253101 1 
808 1 -35.8185 163.731 -13.3052 0.00120262 1 
809 1 -34.7003 161.469 -14.6311 0.000459936 1 
810 1 -35.9717 161.124 -12.1014 0.00142575 1 
811 1 -33.4514 162.471 -12.2597 0.00112234 1 
812 1 -34.7194 162.124 -9.73011 0.00306209 1 
813 1 -33.6134 159.868 -11.0379 0.00129033 1 
814 1 -34.8817 159.524 -8.49223 0.00316619 1 
815 1 -32.3677 160.875 -8.6414 0.00259041 1 
816 1 -33.6391 160.535 -6.08393 0.00532065 1 
817 1 -32.5446 158.286 -7.39612 0.00695382 1 
818 1 -33.8269 157.953 -4.8092 0.0256992 1 
819 1 -31.3092 159.305 -4.96203 0.0162246 1 
820 1 -32.6141 158.959 -2.36324 0.0990043 1 
821 1 -31.4787 156.738 -3.73924 0.0361092 1 
822 1 -32.8009 156.428 -1.11108 2.30751 5 
823 1 -30.2568 157.695 -1.24127 2.91886 5 
838 1 -32.1788 162.818 -14.7925 0.000394243 1 
840 1 -32.3418 160.214 -13.5828 0.000490936 1 
841 1 -29.8228 161.567 -13.7445 0.000463066 1 
842 1 -31.0974 161.221 -11.1963 0.00119246 1 
843 1 -29.9914 158.968 -12.5341 0.00107048 1 
844 1 -31.2692 158.626 -9.97204 0.00286254 1 
845 1 -28.7543 159.982 -10.1392 0.00269268 1 
846 1 -30.0322 159.643 -7.55973 0.0062081 1 
847 1 -28.9283 157.394 -8.93713 0.00915101 1 
848 1 -30.2133 157.063 -6.347 0.019092 1 
849 1 -27.6969 158.423 -6.52443 0.0498303 1 
850 1 -28.971 158.095 -3.90497 0.130057 1 
851 1 -27.8845 155.821 -5.41747 0.0883328 1 
852 1 -29.1537 155.526 -2.69397 6.38113 5 
853 1 -26.6632 156.804 -3.09805 5.75773 5 
854 1 -26.8388 154.192 -2.14264 5.90302 5 
876 1 -27.4733 160.323 -12.7016 0.0010058 1 
877 1 -26.3559 158.064 -14.0565 0.000635028 1 
878 1 -27.6414 157.727 -11.5043 0.002866 1 
879 1 -25.1211 159.08 -11.6791 0.00246256 1 
880 1 -26.4092 158.749 -9.11344 0.0137507 1 
881 1 -25.2788 156.48 -10.511 0.00386556 1 
882 1 -26.5744 156.149 -7.97498 0.0145102 1 
883 1 -24.0429 157.497 -8.16895 0.027169 1 
884 1 -25.3509 157.16 -5.65289 0.112379 1 
885 1 -24.1727 154.891 -7.01098 0.0214259 1 
886 1 -25.4676 154.564 -4.55199 0.112575 1 
887 1 -22.9357 155.912 -4.68384 0.0305506 1 
888 1 -24.2893 155.594 -2.22995 0.313576 1 
889 1 -23.1005 153.318 -3.46641 0.0369054 1 
890 1 -24.4228 153.089 -1.02953 0.903547 5 
891 1 -21.8877 154.427 -1.13016 0.483441 1 
914 1 -23.8337 159.417 -14.2254 0.000445075 1 
916 1 -23.9923 156.815 -13.0431 0.000794122 1 
917 1 -21.4681 158.166 -13.2107 0.000901929 1 
918 1 -22.7516 157.83 -10.6861 0.00442178 1 
919 1 -21.6195 155.56 -12.0214 0.00146998 1 
920 1 -22.8946 155.222 -9.50579 0.00519093 1 
921 1 -20.37 156.571 -9.6634 0.0038852 1 
922 1 -21.645 156.236 -7.16188 0.0103434 1 
923 1 -20.5169 153.964 -8.44579 0.0041055 1 
924 1 -21.792 153.627 -5.94034 0.0120519 1 
925 1 -19.2682 154.985 -6.07243 0.00920176 1 
926 1 -20.5692 154.679 -3.5819 0.0261373 1 
927 1 -19.4289 152.388 -4.80653 0.0345876 1 
928 1 -20.8105 152.087 -2.29833 0.0825268 1 
929 1 -18.2783 153.451 -2.41325 0.0729914 1 
930 1 -18.4872 150.928 -1.16364 2.74762 5 
958 1 -20.344 155.9 -14.5484 0.000422209 1 
959 1 -17.8221 157.252 -14.7089 0.000417525 1 
960 1 -19.0969 156.911 -12.1811 0.00131824 1 
961 1 -17.9797 154.649 -13.5049 0.000558882 1 
962 1 -19.2492 154.306 -10.9707 0.00154229 1 
963 1 -16.7306 155.661 -11.1248 0.001333 1 
964 1 -17.9968 155.319 -8.59223 0.00318867 1 
965 1 -16.8893 153.064 -9.89628 0.00163095 1 
966 1 -18.1535 152.722 -7.34537 0.00352358 1 
967 1 -15.6374 154.084 -7.49236 0.0033881 1 
968 1 -16.9047 153.75 -4.93796 0.0349539 1 
969 1 -15.7936 151.501 -6.24138 0.00882104 1 
970 1 -17.0242 151.195 -3.67376 0.184068 1 
971 1 -14.4968 152.544 -3.80793 0.199074 1 
972 1 -15.9629 152.273 -1.28791 3.02714 5 
973 1 -14.5158 150.054 -2.51833 6.02112 5 
1005 1 -15.4605 156.003 -13.6629 0.000509725 1 
1006 1 -14.3502 153.743 -14.9987 0.000319402 1 
1007 1 -15.623 153.405 -12.4491 0.000795968 1 
1008 1 -13.1069 154.761 -12.6094 0.000844325 1 
1009 1 -14.3758 154.424 -10.0527 0.00184954 1 
1010 1 -13.2756 152.169 -11.3972 0.00202858 1 
1011 1 -14.5393 151.835 -8.82132 0.00370512 1 
1012 1 -12.0319 153.199 -8.99192 0.00516282 1 
1013 1 -13.2801 152.867 -6.39733 0.0102261 1 
1014 1 -12.1951 150.621 -7.7789 0.0154382 1 
1015 1 -13.435 150.303 -5.16778 0.0961405 1 
1016 1 -10.9181 151.667 -5.34525 0.0843875 1 
1017 1 -11.9896 151.361 -2.66835 6.87841 5 
1018 1 -11.0878 149.111 -4.22418 6.69818 5 
1019 1 -12.157 149.608 -0.54385 6.88459 5 
1020 1 -9.637 151.016 -0.63592 6.34147 5 
1021 1 -10.0378 148.114 -1.357 10.4345 5 
1057 1 -11.9998 152.501 -13.9588 0.00076132 1 
1058 1 -9.48059 153.855 -14.1245 0.000701873 1 
1059 1 -10.7606 153.527 -11.5664 0.00201735 1 
1060 1 -9.6497 151.262 -12.9372 0.00156935 1 
1061 1 -10.9325 150.939 -10.3742 0.00596602 1 
1062 1 -8.41331 152.296 -10.5545 0.00539566 1 
1063 1 -9.69373 151.981 -7.97846 0.023126 1 
1064 1 -8.57714 149.701 -9.40645 0.0110461 1 
1065 1 -9.84308 149.405 -6.82601 0.0758237 1 
1066 1 -7.34515 150.735 -7.07297 0.0630087 1 
1067 1 -8.55972 150.466 -4.41371 10.2935 5 
1068 1 -7.46037 148.133 -6.01418 0.296983 1 
1069 1 -8.70088 147.839 -3.60617 6.69548 5 
1070 1 -6.1937 149.188 -3.73885 6.37949 5 
1071 1 -7.60764 149.446 -1.50349 10.8845 5 
1072 1 -6.52393 146.663 -2.3849 0.477435 1 
1113 1 -7.12698 152.614 -13.1074 0.00125734 1 
1114 1 -6.00402 150.34 -14.4738 0.000597308 1 
1115 1 -7.28948 150.018 -11.9429 0.00217765 1 
1116 1 -4.76183 151.366 -12.1109 0.00290178 1 
1117 1 -6.04869 151.049 -9.59432 0.010502 1 
1118 1 -4.91329 148.763 -10.943 0.00713533 1 
1119 1 -6.18855 148.443 -8.45853 0.0391987 1 
1120 1 -3.65844 149.791 -8.6003 0.0223123 1 
1121 1 -4.93048 149.475 -6.15425 0.116275 1 
1122 1 -3.82378 147.181 -7.37705 0.0142082 1 
1123 1 -5.13342 146.879 -4.88095 0.0371641 1 
1124 1 -2.59645 148.229 -4.99728 0.0308012 1 
1125 1 -3.97115 147.971 -2.51554 0.202588 1 
1126 1 -2.80063 145.662 -3.71655 0.0788796 1 
1127 1 -4.23439 145.476 -1.27338 3.53898 5 
1128 1 -1.69748 146.822 -1.36778 3.45565 5 
1171 1 -3.47919 151.686 -14.6357 0.000674202 1 
1173 1 -3.63648 149.086 -13.4539 0.00156152 1 
1174 1 -1.11353 150.43 -13.6062 0.00116948 1 
1175 1 -2.38718 150.109 -11.0897 0.00498636 1 
1176 1 -1.2739 147.832 -12.4055 0.00154943 1 
1177 1 -2.54573 147.506 -9.88282 0.00499384 1 
1178 1 -0.026731 148.854 -10.0168 0.00357229 1 
1179 1 -1.29879 148.535 -7.49639 0.00893921 1 
1180 1 -0.199437 146.265 -8.78074 0.00458796 1 
1181 1 -1.48455 145.953 -6.23635 0.00959532 1 
1182 1 -0.260574 147.01 -3.81458 0.110042 1 
1183 1 -0.472357 144.483 -2.46093 0.306827 1 
1327 1 -55.2399 166.643 -13.0435 0.00147301 1 
1331 1 -54.1358 165.031 -9.4823 0.00410149 1 
1332 1 -55.4118 164.687 -6.96931 0.0114133 1 
1333 1 -54.2873 162.44 -8.24821 0.00379258 1 
1335 1 -53.0381 163.454 -5.8462 0.014522 1 
1336 1 -54.3268 163.141 -3.30075 0.0951313 1 
1337 1 -53.2126 160.879 -4.60266 0.0166948 1 
1339 1 -51.988 161.949 -2.18955 4.58077 5 
1340 1 -52.0918 159.423 -0.714198 7.14933 5 
1347 1 -54.1132 164.383 -14.3726 0.000543443 1 
1348 1 -51.59 165.728 -14.5325 0.0005455 1 
1349 1 -52.863 165.38 -12.0045 0.00158738 1 
1350 1 -51.7463 163.126 -13.3277 0.000615573 1 
1351 1 -53.017 162.782 -10.7879 0.00162955 1 
1352 1 -50.4951 164.129 -10.9406 0.00201956 1 
1353 1 -51.763 163.788 -8.39375 0.00528181 1 
1354 1 -50.6608 161.539 -9.72505 0.00248272 1 
1355 1 -51.9347 161.207 -7.16396 0.00351742 1 
1356 1 -49.411 162.557 -7.31268 0.00429065 1 
1357 1 -50.6944 162.241 -4.74653 0.00945133 1 
1358 1 -49.6067 159.983 -6.09762 0.13233 1 
1359 1 -50.8985 159.698 -3.48098 0.347486 1 
1360 1 -48.3625 161.062 -3.60214 5.0232 5 
1361 1 -49.6392 160.816 -0.795297 7.05781 5 
1362 1 -48.5777 158.453 -2.78114 6.89568 5 
1363 1 -47.172 159.621 -0.825357 11.5578 5 
1373 1 -49.2263 164.472 -13.4857 0.000677661 1 
1374 1 -48.1144 162.215 -14.83 0.000426865 1 
1375 1 -49.3886 161.876 -12.2807 0.00125716 1 
1376 1 -46.8707 163.223 -12.4427 0.0015342 1 
1377 1 -48.1416 162.888 -9.88141 0.00309898 1 
1378 1 -47.0365 160.629 -11.2541 0.00878975 1 
1379 1 -48.3175 160.302 -8.68565 0.0426658 1 
1380 1 -45.793 161.652 -8.85686 0.0519165 1 
1381 1 -47.0698 161.337 -6.24897 0.28988 1 
1382 1 -45.9585 159.032 -7.8078 0.0865298 1 
1383 1 -47.2671 158.701 -5.32121 0.256474 1 
1384 1 -44.6846 160.06 -5.56109 0.548278 1 
1385 1 -45.9523 159.775 -3.18944 5.67975 5 
1386 1 -44.8508 157.44 -4.39034 0.098068 1 
1387 1 -46.2313 157.172 -2.01959 3.23775 5 
1388 1 -43.7093 158.523 -2.14201 2.71451 5 
1389 1 -43.7581 156.106 -0.743222 7.54169 5 
1402 1 -45.5959 163.561 -14.9957 0.000432234 1 
1404 1 -45.757 160.962 -13.8057 0.00158655 1 
1405 1 -43.2364 162.307 -13.9767 0.00110474 1 
1406 1 -44.5149 161.977 -11.4241 0.00903733 1 
1407 1 -43.3908 159.702 -12.8077 0.00324044 1 
1408 1 -44.67 159.366 -10.2971 0.0181946 1 
1409 1 -42.1404 160.715 -10.4618 0.018251 1 
1410 1 -43.4116 160.386 -7.98613 0.105381 1 
1411 1 -42.2847 158.094 -9.28965 0.00896136 1 
1412 1 -43.5569 157.76 -6.82148 0.0244371 1 
1413 1 -41.0292 159.112 -6.95375 0.0164982 1 
1414 1 -42.3235 158.794 -4.51629 0.0629399 1 
1415 1 -41.1842 156.496 -5.71601 0.0172093 1 
1416 1 -42.4769 156.221 -3.24121 0.0905514 1 
1417 1 -39.9647 157.569 -3.34771 0.0748819 1 
1418 1 -41.2742 157.44 -0.849633 6.93186 5 
1419 1 -40.2168 154.997 -2.08284 1.5339 5 
1438 1 -40.8659 161.046 -12.9734 0.00240138 1 
1439 1 -39.7451 158.776 -14.3083 0.000734655 1 
1440 1 -41.0164 158.435 -11.7886 0.00276628 1 
1441 1 -38.4933 159.78 -11.9442 0.00194683 1 
1442 1 -39.7605 159.442 -9.43394 0.00634925 1 
1443 1 -38.6497 157.17 -10.7324 0.00216332 1 
1444 1 -39.9147 156.826 -8.21362 0.00646686 1 
1445 1 -37.3983 158.177 -8.35017 0.0041907 1 
1446 1 -38.6707 157.849 -5.83607 0.0129179 1 