ITEM: TIMESTEP
0
ITEM: NUMBER OF ATOMS
9980
ITEM: BOX BOUNDS xy xz yz pp pp ss
-1.7400187988499999e+02 1.5506793672500001e+02 -1.7400187988499999e+02
0.0000000000000000e+00 3.6029963868999999e+01 0.0000000000000000e+00
-9.1599852199550497e+01 9.5989625046843514e+01 0.0000000000000000e+00
ITEM: ATOMS id type x y z c_csym c_cna 
43647 2 1.03649 3.8526 1.32227 10.2971 5 
43600 2 4.5662 1.34771 1.35033 5.96454 5 
42146 2 0.284319 12.7932 0.897144 10.2007 5 
42116 2 2.11918 8.4827 1.29583 3.09976 5 
42114 2 3.18178 13.4833 1.42193 10.6802 5 
16149 1 -158.386 35.709 -14.3508 2.57658e-05 1 
16150 1 -156.43 33.7805 -13.5408 5.66741e-05 1 
16154 1 -1.25857 29.7403 -13.3022 9.13018e-05 1 
16157 1 -3.10951 27.6263 -13.8696 8.15758e-05 1 
16158 1 -1.1561 25.6942 -13.0633 0.000123525 1 
16160 1 -0.416553 23.58 -14.849 2.86979e-05 1 
16161 1 -3.00582 23.5821 -13.6263 0.000124414 1 
16162 1 -1.05321 21.6518 -12.8228 0.000132201 1 
16164 1 -0.312721 19.5395 -14.6121 3.32792e-05 1 
16165 1 -2.90219 19.5438 -13.3857 9.41309e-05 1 
16166 1 -0.948805 17.6143 -12.5872 0.000112605 1 
16168 1 -0.207913 15.4989 -14.3777 2.73285e-05 1 
16169 1 -2.79819 15.5049 -13.1529 9.08267e-05 1 
16170 1 -0.842219 13.5722 -12.3559 9.90797e-05 1 
16171 1 -2.05796 13.3883 -14.9419 1.94419e-05 1 
16172 1 -2.6927 11.4607 -12.9208 6.41285e-05 1 
16173 1 -0.73439 9.52876 -12.1235 6.83851e-05 1 
16174 1 -1.95254 9.34616 -14.7083 1.62458e-05 1 
16175 1 -2.58703 7.41825 -12.6881 5.86894e-05 1 
16176 1 -0.628493 5.48961 -11.8932 0.000168072 1 
16177 1 -1.84738 5.3049 -14.4761 2.93457e-05 1 
16178 1 -2.48265 3.37701 -12.4579 0.000101964 1 
16179 1 -0.52568 1.4438 -11.6664 0.000295455 1 
16180 1 -1.74236 1.26145 -14.2442 4.76532e-05 1 
16183 1 -160.237 33.5992 -14.9181 2.3989e-05 1 
16187 1 -5.06464 29.5574 -14.6779 3.42117e-05 1 
16191 1 -4.95983 25.5132 -14.4347 7.78514e-05 1 
16194 1 -6.80986 23.4022 -14.9993 6.51824e-05 1 
16195 1 -4.85513 21.4726 -14.1902 0.000104465 1 
16198 1 -6.70508 19.3637 -14.7567 8.5526e-05 1 
16199 1 -4.7517 17.4349 -13.9523 8.02641e-05 1 
16202 1 -6.60226 15.3237 -14.5202 4.40558e-05 1 
16203 1 -4.64857 13.3929 -13.7196 4.87154e-05 1 
16206 1 -6.49935 11.2801 -14.2849 3.35505e-05 1 
16207 1 -4.54418 9.3487 -13.4853 4.41389e-05 1 
16210 1 -6.39533 7.23763 -14.0486 3.00389e-05 1 
16211 1 -4.43964 5.30756 -13.2517 4.5853e-05 1 
16214 1 -6.29106 3.19692 -13.8148 4.60664e-05 1 
16215 1 -4.33445 1.26466 -13.0198 6.96439e-05 1 
16243 1 -8.34977 9.16805 -14.849 2.86979e-05 1 
16247 1 -8.24594 5.12755 -14.6121 3.32792e-05 1 
42081 2 5.55691 6.12638 1.50395 2.07575 5 
42079 2 7.0779 8.39359 0.71808 9.4196 5 
17605 1 18.0403 0.0507271 -9.16668 0.00136659 1 
17606 1 -155.215 33.9671 -10.9456 0.000221949 1 
17608 1 -0.683024 28.0006 -8.69847 0.00174218 1 
17609 1 -0.582394 23.9368 -8.44629 0.00401688 1 
17610 1 -0.482572 19.9061 -8.19557 0.00332352 1 
17611 1 -0.37064 15.8775 -7.98325 0.00380533 1 
17612 1 -0.248486 11.8208 -7.75173 0.00466796 1 
17613 1 -0.131035 7.77971 -7.51764 0.00322745 1 
17614 1 -157.171 35.8944 -11.759 0.000104529 1 
17615 1 -159.762 35.9009 -10.5424 0.000297618 1 
17616 1 -157.808 33.976 -9.73211 0.000598314 1 
17617 1 -159.021 33.7865 -12.3274 0.000105398 1 
17620 1 -2.63603 29.9402 -9.50305 0.00110882 1 
17621 1 -3.84948 29.7458 -12.09 0.000172293 1 
17622 1 -1.89538 27.8126 -11.2816 0.000366913 1 
17623 1 -4.4873 27.8181 -10.0746 0.000614196 1 
17624 1 -2.53175 25.8773 -9.25835 0.00236606 1 
17625 1 -3.7453 25.6962 -11.8452 0.000397196 1 
17626 1 -1.79286 23.7626 -11.0351 0.000598915 1 
17627 1 -4.37951 23.7652 -9.81087 0.00242505 1 
17628 1 -2.42942 21.8335 -8.99163 0.00262891 1 
17629 1 -3.64101 21.655 -11.594 0.000462366 1 
17630 1 -1.69028 19.7269 -10.7912 0.000463889 1 
17631 1 -4.27521 19.7354 -9.55345 0.00279701 1 
17632 1 -2.32845 17.8099 -8.75966 0.00252792 1 
17633 1 -3.53804 17.6217 -11.3582 0.000407504 1 
17634 1 -1.58426 15.6914 -10.5654 0.00057099 1 
17635 1 -4.1744 15.6993 -9.3387 0.000958777 1 
17636 1 -2.21715 13.7653 -8.55541 0.0024043 1 
17637 1 -3.43352 13.5788 -11.1345 0.000306525 1 
17638 1 -1.47349 11.6429 -10.3369 0.000395134 1 
17639 1 -4.06797 11.6475 -9.12434 0.00125064 1 
17640 1 -2.10017 9.70668 -8.3221 0.00354621 1 
17641 1 -3.32646 9.52976 -10.9017 0.000362763 1 
17642 1 -1.36484 7.59973 -10.1041 0.000339666 1 
17643 1 -3.95563 7.59734 -8.87602 0.00363498 1 
17644 1 -1.99305 5.67537 -8.08391 0.00461478 1 
17645 1 -3.2212 5.49084 -10.6685 0.000382044 1 
17646 1 -1.26211 3.56236 -9.87978 0.000687291 1 
17647 1 -3.85695 3.5592 -8.6598 0.00213805 1 
17648 1 -1.89142 1.62408 -7.8729 0.00180277 1 
17649 1 -3.11667 1.44489 -10.4419 0.000368289 1 
17650 1 -160.978 35.7141 -13.1366 6.05407e-05 1 
17651 1 -163.568 35.719 -11.9242 0.000261483 1 
17652 1 -161.612 33.793 -11.1141 0.000567974 1 
17655 1 -8.39813 31.6781 -11.6881 0.000183368 1 
17656 1 -6.44346 29.7496 -10.8819 0.000280407 1 
17657 1 -7.6567 29.5605 -13.466 5.13492e-05 1 
17658 1 -5.70057 27.6296 -12.6572 0.000105977 1 
17659 1 -8.29382 27.6319 -11.4454 0.000171821 1 
17660 1 -6.33705 25.7005 -10.6343 0.000453309 1 
17661 1 -7.55069 25.5161 -13.2206 7.32842e-05 1 
17662 1 -5.59442 23.5849 -12.4066 0.000339881 1 
17663 1 -8.18638 23.5897 -11.1938 0.000262454 1 
17664 1 -6.22751 21.6609 -10.371 0.00189381 1 
17665 1 -7.44384 21.4769 -12.9715 0.000228361 1 
17666 1 -5.48948 19.5493 -12.1601 0.000430709 1 
17667 1 -8.07994 19.5551 -10.9456 0.000221949 1 
17668 1 -6.1249 17.6287 -10.1344 0.000766295 1 
17669 1 -7.34026 17.4403 -12.732 0.000153038 1 
17670 1 -5.38775 15.5108 -11.9298 0.000187469 1 
17671 1 -7.97731 15.5177 -10.7115 0.000435555 1 
17672 1 -6.02524 13.5838 -9.91313 0.000563107 1 
17673 1 -7.23887 13.3968 -12.4984 0.000133907 1 
17674 1 -5.28498 11.4639 -11.7003 0.000194667 1 
17675 1 -7.87651 11.4644 -10.4772 0.000600092 1 
17676 1 -5.92163 9.52943 -9.68219 0.00109015 1 
17677 1 -7.13619 9.35001 -12.2621 0.000139909 1 
17678 1 -5.17948 7.41903 -11.4626 0.000238184 1 
17679 1 -7.77516 7.4191 -10.235 0.000889285 1 
17680 1 -5.81837 5.48973 -9.44234 0.00134626 1 
17681 1 -7.03246 5.31019 -12.0251 0.000174565 1 
17682 1 -5.07599 3.37908 -11.2327 0.000293956 1 
17683 1 -7.6689 3.38597 -9.99914 0.000616989 1 
17684 1 -5.71025 1.44898 -9.21306 0.00104083 1 
17686 1 -164.787 35.5329 -14.5125 3.78264e-05 1 
17687 1 -167.381 35.5367 -13.3014 6.03088e-05 1 
17690 1 -9.61343 31.4906 -14.2733 2.90733e-05 1 
17691 1 -12.2064 31.4922 -13.0614 4.88641e-05 1 
17692 1 -10.2494 29.562 -12.2539 8.0109e-05 1 
17693 1 -11.4647 29.3778 -14.8386 1.96511e-05 1 
17694 1 -9.50739 27.447 -14.0307 3.49447e-05 1 
17695 1 -12.0995 27.4494 -12.8169 6.62556e-05 1 
17696 1 -10.143 25.5192 -12.0064 9.7209e-05 1 
17697 1 -11.3578 25.3359 -14.5947 2.72738e-05 1 
17698 1 -9.40074 23.4059 -13.7846 4.5769e-05 1 
17699 1 -11.9925 23.4105 -12.5699 6.54306e-05 1 
17700 1 -10.0365 21.4824 -11.759 0.000104529 1 
17701 1 -11.2515 21.297 -14.3508 2.57658e-05 1 
17702 1 -9.29507 19.3685 -13.5408 5.66741e-05 1 
17703 1 -11.8866 19.3746 -12.3274 0.000105398 1 
17704 1 -9.9306 17.4473 -11.5173 0.000292571 1 
17705 1 -11.1464 17.2581 -14.1097 5.29932e-05 1 
17706 1 -9.19178 15.3283 -13.3022 9.13018e-05 1 
17707 1 -11.7827 15.3339 -12.09 0.000172293 1 
17708 1 -9.8286 13.4007 -11.2816 0.000366913 1 
17709 1 -11.0427 13.2143 -13.8696 8.15758e-05 1 
17710 1 -9.08931 11.2823 -13.0633 0.000123525 1 
17711 1 -11.6785 11.2842 -11.8452 0.000397196 1 
17712 1 -9.72608 9.35057 -11.0351 0.000598915 1 
17713 1 -10.939 9.17016 -13.6263 0.000124414 1 
17714 1 -8.98643 7.23985 -12.8228 0.000132201 1 
17715 1 -11.5742 7.24304 -11.594 0.000462366 1 
17716 1 -9.62349 5.31487 -10.7912 0.000463889 1 
17717 1 -10.8354 5.13179 -13.3857 9.41309e-05 1 
17718 1 -8.88202 3.20235 -12.5872 0.000112605 1 
17719 1 -11.4713 3.20973 -11.3582 0.000407504 1 
17727 1 -16.0168 31.3117 -14.4295 4.25139e-05 1 
17728 1 -14.0575 29.3801 -13.6249 4.99437e-05 1 
17731 1 -15.9083 27.2706 -14.1881 4.26626e-05 1 
17732 1 -13.9496 25.3399 -13.3802 5.05419e-05 1 
17735 1 -15.8005 23.2311 -13.9456 4.07837e-05 1 
17736 1 -13.8428 21.3021 -13.1366 6.05407e-05 1 
17738 1 -13.1027 19.1872 -14.9181 2.3989e-05 1 
17739 1 -15.6945 19.1917 -13.7052 7.11051e-05 1 
17740 1 -13.7383 17.2632 -12.8978 0.000106606 1 
17742 1 -12.9979 15.1454 -14.6779 3.42117e-05 1 
17743 1 -15.5899 15.1485 -13.466 5.13492e-05 1 
17744 1 -13.6338 13.2176 -12.6572 0.000105977 1 
17746 1 -12.893 11.1012 -14.4347 7.78514e-05 1 
17747 1 -15.4839 11.1041 -13.2206 7.32842e-05 1 
17748 1 -13.5276 9.17288 -12.4066 0.000339881 1 
17749 1 -14.7431 8.99022 -14.9993 6.51824e-05 1 
17750 1 -12.7883 7.06065 -14.1902 0.000104465 1 
17751 1 -15.3771 7.06489 -12.9715 0.000228361 1 
17752 1 -13.4227 5.1373 -12.1601 0.000430709 1 
17753 1 -14.6383 4.95169 -14.7567 8.5526e-05 1 
17754 1 -12.6849 3.02291 -13.9523 8.02641e-05 1 
17757 1 140.532 0.911676 -14.5202 4.40558e-05 1 
17764 1 -17.8677 29.202 -14.992 3.74193e-05 1 
17768 1 -17.7595 25.1618 -14.7525 2.89567e-05 1 
17772 1 -17.6523 21.1209 -14.5125 3.78264e-05 1 
17776 1 -17.5467 17.0786 -14.2733 2.90733e-05 1 
17779 1 -19.398 14.9658 -14.8386 1.96511e-05 1 
17780 1 -17.4406 13.035 -14.0307 3.49447e-05 1 
17783 1 -19.2911 10.9239 -14.5947 2.72738e-05 1 
17784 1 -17.334 8.99395 -13.7846 4.5769e-05 1 
17787 1 -19.1847 6.88503 -14.3508 2.57658e-05 1 
17788 1 -17.2283 4.95648 -13.5408 5.66741e-05 1 
17792 1 137.943 0.916354 -13.3022 9.13018e-05 1 
17824 1 -21.0359 4.77518 -14.9181 2.3989e-05 1 
17828 1 134.137 0.733461 -14.6779 3.42117e-05 1 
19060 1 -155.416 34.3596 -4.53404 0.0965444 1 
19061 1 -156.602 34.1651 -7.13221 0.0067235 1 
19063 1 -0.202425 30.3282 -4.33572 0.102468 1 
19064 1 -1.42583 30.1414 -6.91634 0.00693002 1 
19065 1 -2.07068 28.206 -4.95096 0.0166115 1 
19066 1 -1.31957 26.0545 -6.68016 0.011833 1 
19067 1 -1.94213 24.1191 -4.5974 0.102665 1 
19068 1 -1.22631 22.0009 -6.37734 0.0259966 1 
19069 1 -1.84926 20.0827 -4.25418 0.258449 1 
19070 1 -1.1319 17.9932 -6.16148 0.0246157 1 
19071 1 -1.7794 16.0871 -4.14513 0.229089 1 
19072 1 -1.00094 13.9572 -5.98879 0.0321919 1 
19073 1 -1.60687 11.9894 -4.04768 0.129272 1 
19074 1 -0.859634 9.86666 -5.73829 0.0389377 1 
19075 1 -1.43025 7.92744 -3.5989 0.494773 1 
19076 1 -0.731884 5.87457 -5.49534 0.0510905 1 
19077 1 -1.35821 3.94888 -3.58992 0.204024 1 
19078 1 -0.662305 1.79797 -5.3021 0.0397983 1 
19079 1 15.4489 0.0593132 -7.93984 0.00249841 1 
19080 1 12.8722 0.0658722 -6.70705 0.0279968 1 
19081 1 -159.184 34.1994 -5.88102 0.0603456 1 
19082 1 -160.397 33.9886 -8.51211 0.00536401 1 
19085 1 -4.0409 30.1456 -5.73157 0.0104557 1 
19086 1 -5.23484 29.946 -8.3034 0.00143355 1 
19087 1 -3.27578 28.0126 -7.50312 0.00369275 1 
19088 1 -5.88049 28.0206 -6.30246 0.00806859 1 
19089 1 -3.90625 26.0846 -5.49901 0.036466 1 
19090 1 -5.12389 25.8884 -8.05646 0.00383528 1 
19091 1 -3.16176 23.9396 -7.20899 0.0195215 1 
19092 1 -5.75244 23.9821 -6.02321 0.0425744 1 
19093 1 -3.79335 22.0397 -5.09001 0.216098 1 
19094 1 -5.00999 21.8452 -7.75415 0.0210429 1 
19095 1 -3.06654 19.9236 -6.92445 0.0214882 1 
19096 1 -5.66611 19.9159 -5.74145 0.0541111 1 
19097 1 -3.72328 18.0032 -4.89116 0.0862479 1 
19098 1 -4.9111 17.8165 -7.52574 0.00575033 1 
19099 1 -2.966 15.8884 -6.74596 0.00633094 1 
19100 1 -5.55664 15.8925 -5.52529 0.0277494 1 
19101 1 -3.59207 13.9429 -4.76651 0.0199415 1 
19102 1 -4.81165 13.7686 -7.33287 0.00287892 1 
19103 1 -2.84489 11.8272 -6.56555 0.0125946 1 
19104 1 -5.43667 11.8099 -5.33514 0.012008 1 
19105 1 -3.44442 9.89211 -4.56407 0.0824037 1 
19106 1 -4.69689 9.70958 -7.11888 0.00815524 1 
19107 1 -2.70742 7.77869 -6.27744 0.050924 1 
19108 1 -5.33017 7.77974 -5.13322 0.0779992 1 
19109 1 -3.31632 5.82324 -4.33865 0.148016 1 
19110 1 -4.59623 5.65868 -6.87017 0.0178656 1 
19111 1 -2.63155 3.73 -6.10086 0.0274016 1 
19112 1 -5.23511 3.71983 -4.8112 0.145468 1 
19113 1 -3.24468 1.75576 -4.11831 0.146124 1 
19114 1 -4.48669 1.62675 -6.65004 0.0119241 1 
19115 1 -162.349 35.9068 -9.32711 0.00241823 1 
19116 1 -164.945 35.9117 -8.13742 0.00161942 1 
19117 1 -162.991 33.9866 -7.31113 0.00601099 1 
19119 1 -7.18713 31.8719 -9.10362 0.00150071 1 
19120 1 -9.77968 31.8667 -7.89014 0.00279859 1 
19121 1 -7.83713 29.9467 -7.09497 0.00593441 1 
19122 1 -9.03822 29.7498 -9.67091 0.00048076 1 
19123 1 -7.08467 27.8209 -8.86604 0.00104717 1 
19124 1 -9.68018 27.8172 -7.64755 0.00159118 1 
19125 1 -7.72267 25.8948 -6.83662 0.00326113 1 
19126 1 -8.93206 25.7037 -9.41896 0.000470179 1 
19127 1 -6.97384 23.7764 -8.60524 0.00313075 1 
19128 1 -9.57701 23.7839 -7.38417 0.00215604 1 
19129 1 -7.62989 21.8591 -6.59188 0.0272874 1 
19130 1 -8.82681 21.6687 -9.16668 0.00136659 1 
19131 1 -6.86771 19.7403 -8.34602 0.00325367 1 
19132 1 -9.46691 19.7531 -7.13221 0.0067235 1 
19133 1 -7.49703 17.8318 -6.2994 0.0325125 1 
19134 1 -8.71528 17.6394 -8.91795 0.00238714 1 
19135 1 -6.76432 15.7094 -8.11948 0.0029411 1 
19136 1 -9.35905 15.7294 -6.91634 0.00693002 1 
19137 1 -7.40614 13.7691 -6.12879 0.00937575 1 
19138 1 -8.61624 13.5886 -8.69847 0.00174218 1 
19139 1 -6.66189 11.6451 -7.9018 0.00175216 1 
19140 1 -9.25278 11.6426 -6.68016 0.011833 1 
19141 1 -7.299 9.70422 -5.87749 0.0140664 1 
19142 1 -8.51561 9.52485 -8.44629 0.00401688 1 
19143 1 -6.56427 7.59492 -7.6605 0.00909773 1 
19144 1 -9.15952 7.58892 -6.37734 0.0259966 1 
19145 1 -7.20157 5.66664 -5.61757 0.0478345 1 
19146 1 -8.41579 5.49412 -8.19557 0.00332352 1 
19147 1 -6.45345 3.56426 -7.41312 0.00398502 1 
19148 1 -9.06512 3.58122 -6.16148 0.0246157 1 
19149 1 -7.07791 1.63468 -5.41878 0.0367922 1 
19151 1 -166.162 35.7231 -10.7197 0.000241751 1 
19152 1 -168.756 35.7243 -9.5167 0.000543411 1 
19155 1 -10.9911 31.677 -10.478 0.000273618 1 
19156 1 -13.5877 31.6709 -9.2703 0.00140734 1 
19157 1 -11.63 29.745 -8.45705 0.00123909 1 
19158 1 -12.8422 29.5619 -11.0411 0.000206873 1 
19159 1 -10.8869 27.6321 -10.2303 0.000285695 1 
19160 1 -13.4793 27.6351 -9.0142 0.000901013 1 
19161 1 -11.5257 25.7047 -8.19545 0.00144842 1 
19162 1 -12.7345 25.5231 -10.7903 0.000214635 1 
19163 1 -10.7802 23.5952 -9.97732 0.000321109 1 
19164 1 -13.3686 23.6008 -8.75749 0.00176827 1 
19165 1 -11.4182 21.6773 -7.93984 0.00249841 1 
19166 1 -12.6274 21.4889 -10.5424 0.000297618 1 
19167 1 -10.6733 19.564 -9.73211 0.000598314 1 
19168 1 -13.2622 19.5766 -8.51211 0.00536401 1 
19169 1 -11.316 17.6564 -7.71278 0.00525677 1 
19170 1 -12.5244 17.456 -10.3082 0.000765251 1 
19171 1 -10.5692 15.5282 -9.50305 0.00110882 1 
19172 1 -13.1681 15.5341 -8.3034 0.00143355 1 
19173 1 -11.209 13.6006 -7.50312 0.00369275 1 
19174 1 -12.4205 13.4061 -10.0746 0.000614196 1 
19175 1 -10.465 11.4654 -9.25835 0.00236606 1 
19176 1 -13.0571 11.4765 -8.05646 0.00383528 1 
19177 1 -11.095 9.52759 -7.20899 0.0195215 1 
19178 1 -12.3127 9.35325 -9.81087 0.00242505 1 
19179 1 -10.3626 7.42156 -8.99163 0.00262891 1 
19180 1 -12.9432 7.43317 -7.75415 0.0210429 1 
19181 1 -10.9998 5.51158 -6.92445 0.0214882 1 
19182 1 -12.2084 5.32337 -9.55345 0.00279701 1 
19183 1 -10.2617 3.39791 -8.75966 0.00252792 1 
19184 1 -12.8443 3.40452 -7.52574 0.00575033 1 
19187 1 -169.975 35.5391 -12.0899 0.00016978 1 
19189 1 -15.5434 33.6041 -10.076 0.000494638 1 
19190 1 -16.7596 33.4247 -12.6512 0.000125025 1 
19191 1 -14.8006 31.492 -11.8486 0.000184729 1 
19192 1 -17.395 31.4905 -10.6314 0.0011555 1 
19193 1 -15.4354 29.5599 -9.82291 0.00120085 1 
19194 1 -16.6505 29.3827 -12.4087 0.000182072 1 
19195 1 -14.6917 27.4529 -11.6024 0.000184834 1 
19196 1 -17.2831 27.4596 -10.3835 0.000542861 1 
19197 1 -15.3252 25.5317 -9.57703 0.000696053 1 
19198 1 -16.5414 25.346 -12.1665 0.000117712 1 
19199 1 -14.5831 23.4158 -11.3552 0.000206124 1 
19200 1 -17.1739 23.4238 -10.1476 0.000507297 1 
19201 1 -15.2144 21.4948 -9.32711 0.00241823 1 
19202 1 -16.4338 21.307 -11.9242 0.000261483 1 
19203 1 -14.4777 19.3811 -11.1141 0.000567974 1 
19204 1 -17.0705 19.3826 -9.90797 0.000625856 1 
19205 1 -15.1203 17.4599 -9.10362 0.00150071 1 
19206 1 -16.3313 17.2661 -11.6881 0.000183368 1 
19207 1 -14.3767 15.3376 -10.8819 0.000280407 1 
19208 1 -16.9714 15.3378 -9.67091 0.00048076 1 
19209 1 -15.0179 13.4089 -8.86604 0.00104717 1 
19210 1 -16.227 13.2199 -11.4454 0.000171821 1 
19211 1 -14.2703 11.2885 -10.6343 0.000453309 1 
19212 1 -16.8653 11.2917 -9.41896 0.000470179 1 
19213 1 -14.9071 9.36441 -8.60524 0.00313075 1 
19214 1 -16.1196 9.17768 -11.1938 0.000262454 1 
19215 1 -14.1607 7.24894 -10.371 0.00189381 1 
19216 1 -16.76 7.25672 -9.16668 0.00136659 1 
19217 1 -14.8009 5.32832 -8.34602 0.00325367 1 
19218 1 -16.0132 5.14313 -10.9456 0.000221949 1 
19219 1 -14.0581 3.21668 -10.1344 0.000766295 1 
19221 1 140.37 1.29743 -8.11948 0.0029411 1 
19222 1 139.157 1.10575 -10.7115 0.000435555 1 
19225 1 -19.3529 33.4249 -11.4298 0.000506528 1 
19226 1 -20.5692 33.2473 -14.0091 7.26526e-05 1 
19227 1 -18.6102 31.3145 -13.2111 0.000153625 1 
19228 1 -21.2011 31.3185 -11.986 0.000263032 1 
19229 1 -19.2422 29.388 -11.1867 0.000534925 1 
19230 1 -20.4602 29.2072 -13.7723 8.32943e-05 1 
19231 1 -18.5007 27.2764 -12.9714 9.76637e-05 1 
19232 1 -21.0921 27.2842 -11.7528 0.000331403 1 
19233 1 -19.1325 25.3544 -10.9527 0.000280949 1 
19234 1 -20.3523 25.1679 -13.5373 6.74936e-05 1 
19235 1 -18.3929 23.2369 -12.7339 9.54065e-05 1 
19236 1 -20.9859 23.2427 -11.5233 0.000218797 1 
19237 1 -19.0275 21.3111 -10.7197 0.000241751 1 
19238 1 -20.246 21.1247 -13.3014 6.03088e-05 1 
19239 1 -18.2873 19.1944 -12.495 8.64027e-05 1 
19240 1 -20.8816 19.1944 -11.2868 0.000184669 1 
19241 1 -18.9243 17.265 -10.478 0.000273618 1 
19242 1 -20.1396 17.0802 -13.0614 4.88641e-05 1 
19243 1 -18.1827 15.15 -12.2539 8.0109e-05 1 
19244 1 -20.7754 15.15 -11.0411 0.000206873 1 
19245 1 -18.8201 13.2202 -10.2303 0.000285695 1 
19246 1 -20.0327 13.0374 -12.8169 6.62556e-05 1 
19247 1 -18.0762 11.1072 -12.0064 9.7209e-05 1 
19248 1 -20.6678 11.1111 -10.7903 0.000214635 1 
19249 1 -18.7134 9.1832 -9.97732 0.000321109 1 
19250 1 -19.9258 8.9985 -12.5699 6.54306e-05 1 
19251 1 -17.9697 7.07041 -11.759 0.000104529 1 
19252 1 -20.5606 7.07694 -10.5424 0.000297618 1 
19253 1 -18.6065 5.15204 -9.73211 0.000598314 1 
19254 1 -19.8198 4.96257 -12.3274 0.000105398 1 
19257 1 136.565 1.1162 -9.50305 0.00110882 1 
19258 1 135.352 0.921868 -12.09 0.000172293 1 
19260 1 -25.1186 35.1844 -13.5809 4.2046e-05 1 
19261 1 -23.1602 33.251 -12.7838 9.9746e-05 1 
19263 1 -22.4193 31.1385 -14.5704 3.90183e-05 1 
19264 1 -25.0103 31.1432 -13.346 6.50784e-05 1 
19265 1 -23.0509 29.2135 -12.549 0.000202198 1 
19267 1 -22.3117 27.099 -14.3367 6.12072e-05 1 
19268 1 -24.904 27.1045 -13.1165 0.000129021 1 
19269 1 -22.9452 25.1741 -12.3216 0.000174289 1 
19270 1 -24.1642 24.9882 -14.902 4.35852e-05 1 
19271 1 -22.2052 23.0565 -14.1034 5.40333e-05 1 
19272 1 -24.7994 23.0601 -12.8872 0.000141553 1 
19273 1 -22.8405 21.1271 -12.0899 0.00016978 1 
19274 1 -24.0578 20.9438 -14.6678 4.50046e-05 1 
19275 1 -22.0985 19.0114 -13.8665 4.47473e-05 1 
19276 1 -24.6928 19.0127 -12.6512 0.000125025 1 
19277 1 -22.7339 17.08 -11.8486 0.000184729 1 
19278 1 -23.95 16.8997 -14.4295 4.25139e-05 1 
19279 1 -21.9907 14.9682 -13.6249 4.99437e-05 1 
19280 1 -24.5838 14.9708 -12.4087 0.000182072 1 
19281 1 -22.6249 13.0409 -11.6024 0.000184834 1 
19282 1 -23.8415 12.8586 -14.1881 4.26626e-05 1 
19283 1 -21.8828 10.9279 -13.3802 5.05419e-05 1 
19284 1 -24.4746 10.934 -12.1665 0.000117712 1 
19285 1 -22.5163 9.00385 -11.3552 0.000206124 1 
19286 1 -23.7337 8.8191 -13.9456 4.07837e-05 1 
19287 1 -21.776 6.89009 -13.1366 6.05407e-05 1 
19288 1 -24.367 6.89503 -11.9242 0.000261483 1 
19289 1 -22.4109 4.96907 -11.1141 0.000567974 1 
19292 1 130.803 2.85412 -11.6881 0.000183368 1 
19293 1 132.758 0.925652 -10.8819 0.000280407 1 
19294 1 131.545 0.736556 -13.466 5.13492e-05 1 
19296 1 -28.9251 35.0063 -14.9419 1.94419e-05 1 
19297 1 -26.9687 33.0746 -14.1438 2.62415e-05 1 
19300 1 -28.8197 30.9641 -14.7083 1.62458e-05 1 
19301 1 -26.8621 29.0339 -13.9112 4.06047e-05 1 
19304 1 -28.7145 26.9229 -14.4761 2.93457e-05 1 
19305 1 -26.7574 24.9922 -13.6816 8.57448e-05 1 
19308 1 -28.6095 22.8794 -14.2442 4.76532e-05 1 
19309 1 -26.6517 20.9463 -13.4489 9.70244e-05 1 
19312 1 -28.5024 18.8353 -14.0091 7.26526e-05 1 
19313 1 -26.5434 16.9025 -13.2111 0.000153625 1 
19315 1 -25.8009 14.79 -14.992 3.74193e-05 1 
19316 1 -28.3935 14.7953 -13.7723 8.32943e-05 1 
19317 1 -26.4339 12.8644 -12.9714 9.76637e-05 1 
19319 1 -25.6927 10.7498 -14.7525 2.89567e-05 1 
19320 1 -28.2855 10.756 -13.5373 6.74936e-05 1 
19321 1 -26.3261 8.82487 -12.7339 9.54065e-05 1 
19323 1 -25.5855 6.70896 -14.5125 3.78264e-05 1 
19324 1 -28.1792 6.71275 -13.3014 6.03088e-05 1 
19327 1 129.588 2.66666 -14.2733 2.90733e-05 1 
19328 1 126.995 2.66822 -13.0614 4.88641e-05 1 
19329 1 128.952 0.738033 -12.2539 8.0109e-05 1 
19330 1 127.737 0.553798 -14.8386 1.96511e-05 1 
19345 1 -30.4603 20.7681 -14.8057 3.09248e-05 1 
19349 1 -30.3525 16.7265 -14.5704 3.90183e-05 1 
19353 1 -30.2449 12.687 -14.3367 6.12072e-05 1 
19356 1 -32.0974 10.5762 -14.902 4.35852e-05 1 
19357 1 -30.1384 8.64453 -14.1034 5.40333e-05 1 
19364 1 123.185 2.48768 -14.4295 4.25139e-05 1 
19365 1 125.144 0.556167 -13.6249 4.99437e-05 1 
19401 1 121.334 0.378016 -14.992 3.74193e-05 1 
20509 1 -156.634 34.517 -0.307703 8.48986 5 
20510 1 -157.982 34.3912 -3.18122 0.492506 1 
20511 1 -156.001 32.4444 -2.48685 0.745567 5 
20513 1 -1.61406 30.3354 -0.307044 9.32861 5 
20514 1 -2.80273 30.3496 -3.20843 0.370778 1 
20515 1 -0.852397 28.3972 -2.43741 1.3332 1 
20516 1 -3.58072 28.6894 -1.23769 8.17374 5 
20517 1 -1.77769 26.8347 -0.507368 10.0523 5 
20518 1 -2.73306 26.3058 -2.94752 0.531965 1 
20519 1 -0.740788 24.3912 -1.99971 2.61444 5 
20520 1 -3.2702 24.3799 -0.549177 10.4775 5 
20521 1 -0.64078 22.521 -0.0511649 10.0516 5 
20522 1 -2.46806 22.2177 -2.42648 2.65924 5 
20523 1 -0.508378 20.2642 -1.75307 2.99072 5 
20524 1 -4.67826 19.7733 -0.366789 10.1142 5 
20525 1 -0.928673 18.0482 -0.0120051 10.5857 5 
20526 1 -2.67654 18.1552 -2.11154 8.01323 5 
20527 1 -0.462836 16.0435 -1.63372 7.50142 5 
20528 1 -2.62584 15.4731 0.321759 9.05967 5 
20529 1 -2.31545 14.0986 -2.24647 5.37157 5 
20530 1 -0.319668 12.1931 -1.61448 6.44983 5 
20531 1 -2.64183 12.2896 -0.131462 10.7527 5 
20532 1 -2.15121 10.0971 -1.96818 0.735416 1 
20533 1 -0.0856952 7.9405 -0.720005 7.02593 5 
20534 1 -2.86573 8.11279 -0.280215 11.0129 5 
20535 1 -2.07692 5.90752 -1.66553 3.76408 5 
20536 1 -0.0157844 4.09598 -1.11871 7.78953 5 
20537 1 -1.93634 1.95107 -1.75457 5.47737 5 
20538 1 -160.63 34.2813 -1.93633 4.49956 5 
20539 1 -161.78 34.1789 -4.68811 0.0957985 1 
20542 1 -5.52041 30.3667 -2.10061 5.91474 5 
20543 1 -6.67808 30.1497 -4.5405 0.0983752 1 
20544 1 -4.6803 28.1975 -3.75255 0.257419 1 
20545 1 -7.23307 28.1666 -2.51947 0.74684 1 
20546 1 -5.19486 26.3059 -1.47351 3.20696 5 
20547 1 -6.49176 26.1155 -4.26729 0.0831089 1 
20548 1 -4.50346 24.2564 -3.42184 0.525804 1 
20549 1 -7.08508 24.2463 -2.30725 6.75208 5 
20550 1 -5.10405 22.2836 -1.71488 9.95504 5 
20551 1 -6.43596 22.079 -4.09355 0.363747 1 
20552 1 -4.44474 20.082 -3.15639 5.17406 5 
20553 1 -7.0639 20.2822 -2.00858 5.31604 5 
20554 1 -4.84362 16.9044 -0.397166 6.22794 5 
20555 1 -6.31929 17.9895 -3.60825 5.12506 5 
20556 1 -4.35915 16.0411 -2.96129 3.6366 5 
20557 1 -7.01013 15.8781 -1.68325 4.76151 5 
20558 1 -4.85813 14.0748 -1.10221 8.76255 5 
20559 1 -6.19577 13.8982 -3.58635 0.118924 1 
20560 1 -4.15283 11.979 -2.79242 0.151896 1 
20561 1 -6.77252 11.8635 -1.62174 5.2683 5 
20562 1 -4.69789 10.1778 -0.775552 9.17809 5 
20563 1 -6.04458 9.85867 -3.31783 0.239555 1 
20564 1 -3.99955 7.92806 -2.69004 1.1172 1 
20565 1 -6.33156 7.82506 -1.37557 7.75912 5 
20566 1 -4.64538 5.75764 -0.157054 8.63234 5 
20567 1 -5.88156 5.83904 -3.12997 0.498758 1 
20568 1 -3.86288 3.88426 -2.29655 1.8609 5 
20569 1 -6.41945 3.89308 -1.36876 8.90045 5 
20570 1 -4.4466 2.01143 -0.160626 10.1548 5 
20571 1 -5.75235 1.73193 -2.8587 0.294199 1 
20572 1 10.2713 0.0749448 -5.56296 0.0199614 1 
20573 1 7.70338 0.0961041 -4.3966 0.0745616 1 
20574 1 -164.367 34.1991 -3.53259 0.309279 1 
20576 1 -8.58104 32.0684 -5.28422 0.0426665 1 
20577 1 -11.1908 32.022 -4.18587 0.462122 1 
20578 1 -9.23783 30.1094 -3.2325 0.472485 1 
20579 1 -10.4198 29.9269 -5.86885 0.0223298 1 
20580 1 -8.48065 28.0122 -5.07633 0.0206258 1 
20581 1 -11.067 28.0396 -3.83821 0.228787 1 
20582 1 -9.08684 26.0981 -3.03857 0.114577 1 
20583 1 -10.3242 25.8943 -5.59992 0.0104925 1 
20584 1 -8.37504 23.9842 -4.80676 0.033975 1 
20585 1 -10.9518 23.9449 -3.54945 0.17954 1 
20586 1 -9.02833 22.0725 -2.73824 0.355033 1 
20587 1 -10.227 21.8624 -5.33024 0.0234188 1 
20588 1 -8.28122 19.9476 -4.53404 0.0965444 1 
20589 1 -10.8477 19.9792 -3.18122 0.492506 1 
20590 1 -8.86595 18.0324 -2.48685 0.745567 5 
20591 1 -10.1065 17.8652 -5.11032 0.045762 1 
20592 1 -8.13564 15.9163 -4.33572 0.102468 1 
20593 1 -10.736 15.9377 -3.20843 0.370778 1 
20594 1 -8.78561 13.9852 -2.43741 1.3332 1 
20595 1 -10.0039 13.794 -4.95096 0.0166115 1 
20596 1 -8.04467 11.8133 -4.12261 0.0741635 1 
20597 1 -10.6663 11.8938 -2.94752 0.531965 1 
20598 1 -8.674 9.97924 -1.99971 2.61444 5 
20599 1 -9.87534 9.70714 -4.5974 0.102665 1 
20600 1 -7.90795 7.79407 -3.81679 0.197932 1 
20601 1 -10.4013 7.80571 -2.42648 2.65924 5 
20602 1 -8.44159 5.85226 -1.75307 2.99072 5 
20603 1 -9.78247 5.67067 -4.25418 0.258449 1 
20604 1 -7.89451 3.70084 -3.61287 0.550578 1 
20605 1 -10.6098 3.74325 -2.11154 8.01323 5 
20608 1 -167.535 35.9083 -6.94746 0.00976865 1 
20609 1 -170.122 35.9125 -5.75421 0.044857 1 
20612 1 -12.383 31.8542 -6.70352 0.0200516 1 
20613 1 -14.9702 31.8249 -5.51972 0.0882316 1 
20614 1 -13.0105 29.884 -4.6154 0.182497 1 
20615 1 -14.2223 29.7312 -7.22987 0.0116108 1 
20616 1 -12.2718 27.8213 -6.42782 0.00959951 1 
20617 1 -14.8669 27.8227 -5.17387 0.0146275 1 
20618 1 -12.918 25.934 -4.40268 0.0657025 1 
20619 1 -14.1168 25.7188 -6.98317 0.0051939 1 
20620 1 -12.1671 23.7799 -6.14297 0.0214816 1 
20621 1 -14.7551 23.8063 -4.96624 0.0575378 1 
20622 1 -12.8051 21.8583 -4.00458 0.317534 1 
20623 1 -13.9949 21.6839 -6.70705 0.0279968 1 
20624 1 -12.0489 19.7874 -5.88102 0.0603456 1 
20625 1 -14.6455 19.7669 -4.68811 0.0957985 1 
20626 1 -12.7289 17.8806 -3.97279 0.252649 1 
20627 1 -13.9211 17.6632 -6.52298 0.0154016 1 
20628 1 -11.9741 15.7337 -5.73157 0.0104557 1 
20629 1 -14.6113 15.7377 -4.5405 0.0983752 1 
20630 1 -12.6135 13.7855 -3.75255 0.257419 1 
20631 1 -13.8137 13.6086 -6.30246 0.00806859 1 
20632 1 -11.8395 11.6727 -5.49901 0.036466 1 
20633 1 -14.425 11.7035 -4.26729 0.0831089 1 
20634 1 -12.4367 9.84443 -3.42184 0.525804 1 
20635 1 -13.6857 9.57014 -6.02321 0.0425744 1 
20636 1 -11.7266 7.62773 -5.09001 0.216098 1 
20637 1 -14.3692 7.66702 -4.09355 0.363747 1 
20638 1 -12.378 5.66998 -3.15639 5.17406 5 
20639 1 -13.5993 5.50391 -5.74145 0.0541111 1 
20640 1 -11.6565 3.59119 -4.89116 0.0862479 1 
20641 1 -14.2525 3.57755 -3.60825 5.12506 5 
20644 1 -171.351 35.7209 -8.30992 0.00223615 1 
20646 1 -16.9362 33.7606 -6.31969 0.0511725 1 
20647 1 -18.1404 33.5956 -8.85842 0.00545967 1 
20648 1 -16.185 31.6589 -8.06022 0.0107974 1 
20649 1 -18.7749 31.6508 -6.79792 0.0162168 1 
20650 1 -16.8259 29.7364 -5.99076 0.0228648 1 
20651 1 -18.0286 29.5637 -8.59322 0.00311588 1 
20652 1 -16.0718 27.6418 -7.78515 0.00130193 1 
20653 1 -18.6685 27.6554 -6.55747 0.0128508 1 
20654 1 -16.7044 25.7295 -5.75446 0.00496282 1 
20655 1 -17.9132 25.5451 -8.36202 0.00193403 1 
20656 1 -15.9562 23.6139 -7.55908 0.00514466 1 
20657 1 -18.5343 23.6345 -6.35645 0.0147094 1 
20658 1 -16.5959 21.6929 -5.56296 0.0199614 1 
20659 1 -17.8101 21.4998 -8.13742 0.00161942 1 
20660 1 -15.8568 19.5747 -7.31113 0.00601099 1 
20661 1 -18.4562 19.5696 -6.12505 0.0139377 1 
20662 1 -16.5143 17.6564 -5.28422 0.0426665 1 
20663 1 -17.7129 17.4547 -7.89014 0.00279859 1 
20664 1 -15.7703 15.5347 -7.09497 0.00593441 1 
20665 1 -18.353 15.5149 -5.86885 0.0223298 1 
20666 1 -16.4139 13.6002 -5.07633 0.0206258 1 
20667 1 -17.6134 13.4052 -7.64755 0.00159118 1 
20668 1 -15.6559 11.4828 -6.83662 0.00326113 1 
20669 1 -18.2574 11.4823 -5.59992 0.0104925 1 
20670 1 -16.3083 9.5722 -4.80676 0.033975 1 
20671 1 -17.5102 9.37188 -7.38417 0.00215604 1 
20672 1 -15.5631 7.4471 -6.59188 0.0272874 1 
20673 1 -18.1602 7.45039 -5.33024 0.0234188 1 
20674 1 -16.2144 5.53562 -4.53404 0.0965444 1 
20675 1 -17.4001 5.34114 -7.13221 0.0067235 1 
20676 1 -15.4303 3.41984 -6.2994 0.0325125 1 
20678 1 138.999 1.50427 -4.33572 0.102468 1 
20679 1 137.776 1.31738 -6.91634 0.00693002 1 
20682 1 -20.72 33.5845 -7.60992 0.010934 1 
20683 1 -21.9405 33.4264 -10.1998 0.000967262 1 
20684 1 -19.9831 31.4916 -9.39752 0.00224537 1 
20685 1 -22.5606 31.4982 -8.15836 0.00663914 1 
20686 1 -20.6065 29.578 -7.34225 0.01515 1 
20687 1 -21.8281 29.3966 -9.95707 0.00161921 1 
20688 1 -19.8725 27.471 -9.16291 0.0022487 1 
20689 1 -22.4559 27.4831 -7.94557 0.00480468 1 
20690 1 -20.4964 25.5609 -7.15134 0.00933051 1 
20691 1 -21.7226 25.3632 -9.74074 0.000902646 1 
20692 1 -19.7639 23.4331 -8.94173 0.00129583 1 
20693 1 -22.3561 23.4369 -7.74655 0.00274443 1 
20694 1 -20.4001 21.4963 -6.94746 0.00976865 1 
20695 1 -21.6214 21.3124 -9.5167 0.000543411 1 
20696 1 -19.6647 19.3793 -8.70928 0.000864711 1 
20697 1 -22.2578 19.377 -7.50539 0.00562882 1 
20698 1 -20.3162 17.4422 -6.70352 0.0200516 1 
20699 1 -21.5209 17.259 -9.2703 0.00140734 1 
20700 1 -19.5633 15.333 -8.45705 0.00123909 1 
20701 1 -22.1555 15.3192 -7.22987 0.0116108 1 
20702 1 -20.205 13.4093 -6.42782 0.00959951 1 
20703 1 -21.4125 13.2231 -9.0142 0.000901013 1 
20704 1 -19.459 11.2927 -8.19545 0.00144842 1 
20705 1 -22.05 11.3068 -6.98317 0.0051939 1 
20706 1 -20.1003 9.36793 -6.14297 0.0214816 1 
20707 1 -21.3018 9.1888 -8.75749 0.00176827 1 
20708 1 -19.3514 7.26531 -7.93984 0.00249841 1 
20709 1 -21.9282 7.27186 -6.70705 0.0279968 1 
20710 1 -19.9822 5.37539 -5.88102 0.0603456 1 
20711 1 -21.1954 5.1646 -8.51211 0.00536401 1 