ITEM: TIMESTEP
0
ITEM: NUMBER OF ATOMS
3740
ITEM: BOX BOUNDS xy xz yz pp pp ss
-1.08240803 37.884281041 -1.08240803
0 55.224029126 0
-116.0302049948397 112.0947129734396 0
ITEM: ATOMS id type x y z c_csym c_cna 
1 1 -0.266337 54.5653 -4.52366 0.0468866 1 
23 1 26.29 54.5484 -14.0884 3.50245e-05 1 
24 1 24.1223 54.7995 -10.682 0.00034716 1 
36 1 28.9961 53.8582 -14.7246 3.11016e-05 1 
37 1 29.536 53.4214 -11.9523 0.000114534 1 
38 1 26.8295 54.1103 -11.3151 0.000179529 1 
39 1 27.3682 53.6618 -8.54007 0.00210227 1 
40 1 24.6594 54.3479 -7.91627 0.00250624 1 
41 1 25.1911 53.887 -5.14378 0.0255343 1 
42 1 22.4642 54.5653 -4.52366 0.0468862 1 
49 1 36.5729 53.8582 -14.7246 3.11028e-05 1 
50 1 33.8668 54.5484 -14.0884 3.50246e-05 1 
51 1 34.9496 52.0421 -13.2218 4.26442e-05 1 
52 1 32.2433 52.7318 -12.5871 6.08768e-05 1 
53 1 34.4064 54.1103 -11.3151 0.000179539 1 
54 1 31.6992 54.7995 -10.682 0.00034718 1 
55 1 32.7845 52.2915 -9.81308 0.000600593 1 
56 1 30.0748 52.9782 -9.18065 0.000908953 1 
57 1 32.2363 54.3479 -7.91627 0.00250609 1 
58 1 30.6122 52.5285 -6.40304 0.00490826 1 
59 1 27.9073 53.2005 -5.74653 0.0282809 1 
60 1 30.0411 54.5653 -4.52365 0.0468852 1 
61 1 28.4016 52.6557 -2.88203 1.2269 1 
62 1 25.714 53.3058 -2.32068 7.92131 5 
64 1 -0.228482 51.352 -13.8572 3.62911e-05 1 
65 1 -0.771423 53.4214 -11.9523 0.00011454 1 
66 1 35.4909 51.6045 -10.4474 0.000386963 1 
67 1 -0.232587 52.9782 -9.18065 0.000908884 1 
68 1 34.945 53.6618 -8.54007 0.00210214 1 
69 1 36.033 51.1654 -7.66355 0.00173362 1 
70 1 33.3263 51.8479 -7.02692 0.00276982 1 
71 1 35.4842 53.2005 -5.74652 0.0282844 1 
72 1 32.768 53.887 -5.14378 0.0255375 1 
73 1 33.859 51.4013 -4.23603 0.395589 1 
74 1 31.1275 52.0523 -3.63884 6.33712 5 
75 1 33.2908 53.3058 -2.32068 7.92129 5 
77 1 36.565 50.7221 -4.87327 0.206045 1 
78 1 35.9785 52.6557 -2.88203 1.22692 1 
175 1 11.1362 54.5484 -14.0884 3.50242e-05 1 
176 1 8.96859 54.7995 -10.682 0.000347177 1 
216 1 13.8424 53.8582 -14.7246 3.11024e-05 1 
217 1 14.3823 53.4214 -11.9523 0.000114538 1 
218 1 11.6758 54.1103 -11.3151 0.000179536 1 
219 1 12.2145 53.6618 -8.54007 0.00210218 1 
220 1 9.50572 54.3479 -7.91627 0.00250611 1 
221 1 10.0374 53.887 -5.14378 0.0255369 1 
222 1 7.31052 54.5653 -4.52365 0.0468854 1 
257 1 21.4192 53.8582 -14.7246 3.11023e-05 1 
258 1 18.7131 54.5484 -14.0884 3.50252e-05 1 
259 1 19.7958 52.0421 -13.2218 4.26436e-05 1 
260 1 17.0895 52.7318 -12.5871 6.08773e-05 1 
261 1 19.2527 54.1103 -11.3151 0.000179534 1 
262 1 16.5454 54.7995 -10.682 0.000347166 1 
263 1 17.6308 52.2915 -9.81308 0.00060059 1 
264 1 14.9211 52.9782 -9.18065 0.000908908 1 
265 1 17.0826 54.3479 -7.91627 0.00250619 1 
266 1 15.4585 52.5285 -6.40304 0.00490883 1 
267 1 12.7536 53.2005 -5.74652 0.0282834 1 
268 1 14.8874 54.5653 -4.52366 0.0468863 1 
269 1 13.2479 52.6557 -2.88203 1.22691 1 
270 1 10.5603 53.3058 -2.32068 7.92129 5 
297 1 25.2084 50.6616 -14.4912 2.3044e-05 1 
298 1 22.5021 51.352 -13.8572 3.62905e-05 1 
299 1 24.6664 52.7318 -12.5871 6.08769e-05 1 
300 1 21.9591 53.4214 -11.9523 0.000114538 1 
301 1 23.0439 50.9163 -11.0849 0.00023329 1 
302 1 20.3372 51.6045 -10.4474 0.000386963 1 
303 1 22.498 52.9782 -9.18065 0.000908906 1 
304 1 19.7913 53.6618 -8.54007 0.00210219 1 
305 1 20.8793 51.1654 -7.66355 0.00173369 1 
306 1 18.1726 51.8479 -7.02692 0.00277008 1 
307 1 20.3305 53.2005 -5.74653 0.028283 1 
308 1 17.6143 53.887 -5.14378 0.0255354 1 
309 1 18.7053 51.4013 -4.23603 0.395592 1 
310 1 15.9738 52.0523 -3.63884 6.33711 5 
311 1 18.1371 53.3058 -2.32068 7.9213 5 
329 1 30.0789 51.352 -13.8572 3.62898e-05 1 
330 1 27.3727 52.0421 -13.2218 4.2644e-05 1 
331 1 28.4565 49.5367 -12.3526 9.06515e-05 1 
332 1 25.751 50.2268 -11.7179 0.000157277 1 
333 1 27.9141 51.6045 -10.4474 0.00038696 1 
334 1 25.2077 52.2915 -9.81308 0.00060059 1 
335 1 26.2957 49.7946 -8.93935 0.00110146 1 
336 1 23.5863 50.4816 -8.30914 0.00127924 1 
337 1 25.7495 51.8479 -7.02692 0.00277025 1 
338 1 23.0354 52.5285 -6.40304 0.00490886 1 
339 1 24.1292 50.0469 -5.52928 0.072642 1 
340 1 21.4113 50.7221 -4.87327 0.206045 1 
341 1 23.5507 52.0523 -3.63884 6.33711 5 
342 1 20.8248 52.6557 -2.88203 1.22691 1 
353 1 32.7853 50.6616 -14.4912 2.30429e-05 1 
354 1 33.8684 48.1553 -13.6193 4.14473e-05 1 
355 1 31.1625 48.8461 -12.987 8.16319e-05 1 
356 1 33.3278 50.2268 -11.7179 0.000157281 1 
357 1 30.6207 50.9163 -11.0849 0.000233296 1 
358 1 31.7063 48.4155 -10.2157 0.000544945 1 
359 1 28.9996 49.1055 -9.57788 0.000517795 1 
360 1 31.1631 50.4816 -8.30914 0.00127924 1 
361 1 28.4562 51.1654 -7.66354 0.00173382 1 
362 1 29.5446 48.6796 -6.79658 0.0194422 1 
363 1 26.8452 49.3684 -6.14976 0.0460127 1 
364 1 28.9882 50.7221 -4.87327 0.206045 1 
365 1 26.2822 51.4013 -4.23603 0.395594 1 
366 1 27.4636 49.0521 -3.22427 1.14502 1 
367 1 24.7841 49.7381 -2.62335 5.31041 5 
369 1 36.5739 47.4645 -14.2527 3.99662e-05 1 
370 1 36.0333 49.5367 -12.3526 9.06546e-05 1 
371 1 -0.767473 47.0322 -11.4804 0.000169384 1 
372 1 34.4123 47.7239 -10.8456 0.000252692 1 
373 1 36.5765 49.1055 -9.57788 0.000517788 1 
374 1 33.8726 49.7946 -8.93935 0.00110148 1 
375 1 34.9595 47.3009 -8.06706 0.00503446 1 
376 1 32.2531 47.9925 -7.44731 0.00805706 1 
377 1 34.422 49.3684 -6.14976 0.0460122 1 
378 1 31.7061 50.0469 -5.52928 0.0726425 1 
379 1 32.8135 47.6236 -4.67685 0.167056 1 
380 1 30.1253 48.3471 -3.95319 0.23333 1 
381 1 32.3609 49.7381 -2.62335 5.31042 5 
385 1 -0.222905 46.6084 -8.71053 0.00216989 1 
386 1 -0.762872 48.6796 -6.79658 0.0194422 1 
387 1 35.5118 46.9263 -5.25496 0.101054 1 
388 1 -0.182086 48.3471 -3.95319 0.233326 1 
389 1 35.0404 49.0521 -3.22427 1.14502 1 
390 1 36.1219 46.4342 -2.56562 7.07811 5 
391 1 33.3941 47.1223 -2.07419 6.20062 5 
742 1 6.26551 53.8582 -14.7246 3.11016e-05 1 
743 1 3.55939 54.5484 -14.0884 3.50252e-05 1 
744 1 4.64213 52.0421 -13.2218 4.26436e-05 1 
745 1 1.93583 52.7318 -12.5871 6.08772e-05 1 
746 1 4.09894 54.1103 -11.3151 0.000179528 1 
747 1 1.39174 54.7995 -10.682 0.000347154 1 
748 1 2.4771 52.2915 -9.81308 0.000600589 1 
749 1 1.92886 54.3479 -7.91627 0.00250628 1 
750 1 0.304809 52.5285 -6.40304 0.00490915 1 
804 1 10.0547 50.6616 -14.4912 2.30435e-05 1 
805 1 7.34837 51.352 -13.8572 3.62898e-05 1 
806 1 9.51269 52.7318 -12.5871 6.08766e-05 1 
807 1 6.80543 53.4214 -11.9523 0.000114535 1 
808 1 7.89016 50.9163 -11.0849 0.000233295 1 
809 1 5.18351 51.6045 -10.4474 0.000386959 1 
810 1 7.34427 52.9782 -9.18065 0.000908946 1 
811 1 4.6376 53.6618 -8.54007 0.00210226 1 
812 1 5.72562 51.1654 -7.66354 0.0017338 1 
813 1 3.01891 51.8479 -7.02692 0.00277032 1 
814 1 5.17674 53.2005 -5.74653 0.0282811 1 
815 1 2.46054 53.887 -5.14378 0.0255336 1 
816 1 3.55158 51.4013 -4.23603 0.395595 1 
817 1 0.820116 52.0523 -3.63884 6.3371 5 
818 1 2.9834 53.3058 -2.32068 7.9213 5 
864 1 14.9252 51.352 -13.8572 3.62908e-05 1 
865 1 12.219 52.0421 -13.2218 4.26446e-05 1 
866 1 13.3028 49.5367 -12.3526 9.0654e-05 1 
867 1 10.5973 50.2268 -11.7179 0.00015728 1 
868 1 12.7604 51.6045 -10.4474 0.00038696 1 
869 1 10.054 52.2915 -9.81308 0.000600593 1 
870 1 11.142 49.7946 -8.93935 0.00110147 1 
871 1 8.43257 50.4816 -8.30914 0.00127923 1 
872 1 10.5958 51.8479 -7.02692 0.0027699 1 
873 1 7.88166 52.5285 -6.40304 0.0049083 1 
874 1 8.97549 50.0469 -5.52928 0.0726427 1 
875 1 6.2576 50.7221 -4.87327 0.206045 1 
876 1 8.39697 52.0523 -3.63884 6.33712 5 
877 1 5.67105 52.6557 -2.88203 1.2269 1 
14381 1 -0.782888 55.0335 -7.28351 0.00463675 1 
916 1 17.6315 50.6616 -14.4912 2.30432e-05 1 
917 1 18.7147 48.1553 -13.6193 4.14485e-05 1 
918 1 16.0088 48.8461 -12.987 8.16338e-05 1 
919 1 18.1741 50.2268 -11.7179 0.000157278 1 
920 1 15.467 50.9163 -11.0849 0.000233293 1 
921 1 16.5526 48.4155 -10.2157 0.000544938 1 
922 1 13.8459 49.1055 -9.57788 0.000517788 1 
923 1 16.0094 50.4816 -8.30914 0.00127924 1 
924 1 13.3025 51.1654 -7.66355 0.00173367 1 
925 1 14.3908 48.6796 -6.79658 0.0194423 1 
926 1 11.6915 49.3684 -6.14976 0.0460126 1 
927 1 13.8345 50.7221 -4.87327 0.206045 1 
928 1 11.1284 51.4013 -4.23603 0.39559 1 
929 1 12.3099 49.0521 -3.22427 1.14502 1 
930 1 9.63036 49.7381 -2.62335 5.31041 5 
958 1 24.1261 46.7738 -14.8855 3.65563e-05 1 
959 1 21.4202 47.4645 -14.2527 3.99666e-05 1 
960 1 23.5857 48.8461 -12.987 8.16322e-05 1 
961 1 20.8796 49.5367 -12.3526 9.06529e-05 1 
962 1 21.9631 47.0322 -11.4804 0.000169383 1 
963 1 19.2586 47.7239 -10.8456 0.000252686 1 
964 1 21.4228 49.1055 -9.57788 0.000517794 1 
965 1 18.7189 49.7946 -8.93935 0.00110149 1 
966 1 19.8058 47.3009 -8.06706 0.00503445 1 
967 1 17.0994 47.9925 -7.44731 0.00805709 1 
968 1 19.2683 49.3684 -6.14976 0.0460122 1 
969 1 16.5523 50.0469 -5.52928 0.0726417 1 
970 1 17.6598 47.6236 -4.67685 0.167055 1 
971 1 14.9716 48.3471 -3.95319 0.233328 1 
972 1 17.2072 49.7381 -2.62335 5.31042 5 
14380 1 1.93541 0.0144918 -13.4528 7.00466e-05 1 
995 1 28.9971 47.4645 -14.2527 3.99677e-05 1 
996 1 26.2916 48.1553 -13.6193 4.1448e-05 1 
997 1 27.3741 45.6488 -12.7436 8.79842e-05 1 
998 1 24.6691 46.3403 -12.1124 0.000119459 1 
999 1 26.8354 47.7239 -10.8456 0.000252686 1 
1000 1 24.1294 48.4155 -10.2157 0.000544949 1 
1001 1 25.2151 45.9137 -9.34131 0.000888079 1 
1002 1 22.5077 46.6084 -8.71053 0.0021699 1 
1003 1 24.6763 47.9925 -7.44731 0.00805691 1 
1004 1 21.9677 48.6796 -6.79658 0.0194421 1 
1005 1 23.0523 46.2204 -5.93981 0.0343268 1 
1006 1 20.3581 46.9263 -5.25496 0.101054 1 
1007 1 22.5485 48.3471 -3.95319 0.233326 1 
1008 1 19.8867 49.0521 -3.22427 1.14502 1 
1009 1 20.9682 46.4342 -2.56562 7.07811 5 
1010 1 18.2404 47.1223 -2.07419 6.2006 5 
1021 1 31.7029 46.7738 -14.8855 3.65576e-05 1 
1022 1 32.7852 44.267 -14.0073 7.4035e-05 1 
1023 1 30.0795 44.9576 -13.376 0.000101409 1 
1024 1 32.2459 46.3403 -12.1124 0.000119455 1 
1025 1 29.54 47.0322 -11.4804 0.000169381 1 
1026 1 30.6224 44.5262 -10.6046 0.000668556 1 
1027 1 27.9173 45.2199 -9.97143 0.000670077 1 
1028 1 30.0845 46.6084 -8.71053 0.0021699 1 
1029 1 27.3826 47.3009 -8.06706 0.00503441 1 
1030 1 28.4582 44.8114 -7.20242 0.00991384 1 
1031 1 25.768 45.5069 -6.56801 0.012206 1 
1032 1 27.935 46.9263 -5.25496 0.101055 1 
1033 1 25.2367 47.6236 -4.67685 0.167056 1 
1034 1 26.341 45.073 -3.81761 0.261023 1 
1035 1 23.5944 45.7849 -3.24635 0.119161 1 
1036 1 25.8173 47.1223 -2.07418 6.20057 5 
1041 1 35.4909 43.577 -14.6395 6.82333e-05 1 
1042 1 -0.227902 44.9576 -13.376 0.000101409 1 
1043 1 34.9509 45.6488 -12.7436 8.79837e-05 1 
1044 1 36.0323 43.1413 -11.8635 0.000319019 1 
1045 1 33.3274 43.8327 -11.2323 0.00026619 1 
1046 1 35.4942 45.2199 -9.97143 0.000670061 1 
1047 1 32.7919 45.9137 -9.34131 0.000888068 1 
1048 1 33.8694 43.4055 -8.46134 0.00174855 1 
1049 1 31.1657 44.1097 -7.84439 0.00730788 1 
1050 1 33.3449 45.5069 -6.56801 0.0122052 1 
1051 1 30.6291 46.2204 -5.93981 0.0343268 1 
1052 1 31.7161 43.692 -5.1283 0.0515374 1 
1053 1 29.0109 44.3775 -4.47935 0.0431086 1 
1054 1 31.1712 45.7848 -3.24635 0.119165 1 
1055 1 28.545 46.4342 -2.56562 7.07812 5 
1058 1 36.5726 42.7114 -9.0944 0.00287623 1 
1059 1 36.035 44.8114 -7.20242 0.00991366 1 
1060 1 -0.771963 42.2856 -6.35526 0.0237075 1 
1061 1 34.4052 42.9771 -5.70102 0.0207095 1 
1062 1 36.5878 44.3775 -4.47935 0.0431072 1 
1063 1 33.9179 45.073 -3.8176 0.26103 1 
1064 1 34.9711 42.6196 -2.91243 0.322297 1 
1065 1 32.3292 43.3196 -2.43963 0.507215 1 
1068 1 -0.21917 41.8987 -3.65092 0.258748 1 
1693 1 2.47784 50.6616 -14.4912 2.30437e-05 1 
1694 1 3.56102 48.1553 -13.6193 4.14487e-05 1 
1695 1 0.855123 48.8461 -12.987 8.16342e-05 1 
1696 1 3.02041 50.2268 -11.7179 0.000157276 1 
1697 1 0.313299 50.9163 -11.0849 0.000233289 1 
1698 1 1.39888 48.4155 -10.2157 0.000544941 1 
1699 1 0.855712 50.4816 -8.30914 0.00127924 1 
1754 1 8.97236 46.7738 -14.8855 3.65565e-05 1 
1755 1 6.26651 47.4645 -14.2527 3.99671e-05 1 
1756 1 8.43198 48.8461 -12.987 8.16313e-05 1 
1757 1 5.72592 49.5367 -12.3526 9.06519e-05 1 
1758 1 6.80938 47.0322 -11.4804 0.000169381 1 
1759 1 4.10485 47.7239 -10.8456 0.000252682 1 
1760 1 6.26905 49.1055 -9.57788 0.000517797 1 
1761 1 3.56516 49.7946 -8.93935 0.00110147 1 
1762 1 4.65206 47.3009 -8.06706 0.00503442 1 
1763 1 1.9457 47.9925 -7.44731 0.00805699 1 
1764 1 4.1146 49.3684 -6.14976 0.0460125 1 
1765 1 1.39863 50.0469 -5.52928 0.0726414 1 
1766 1 2.5061 47.6236 -4.67685 0.167056 1 
1767 1 2.0535 49.7381 -2.62335 5.31042 5 
1816 1 13.8434 47.4645 -14.2527 3.99672e-05 1 
1817 1 11.1379 48.1553 -13.6193 4.14472e-05 1 
1818 1 12.2203 45.6488 -12.7436 8.79832e-05 1 
1819 1 9.51537 46.3403 -12.1124 0.000119455 1 
1820 1 11.6817 47.7239 -10.8456 0.000252692 1 
1821 1 8.97573 48.4155 -10.2157 0.000544953 1 
1822 1 10.0613 45.9137 -9.34131 0.000888083 1 
1823 1 7.35395 46.6084 -8.71053 0.00216991 1 
1824 1 9.52255 47.9925 -7.44731 0.00805696 1 
1825 1 6.81398 48.6796 -6.79658 0.0194421 1 
1826 1 7.89857 46.2204 -5.93981 0.0343268 1 
1827 1 5.20442 46.9263 -5.25496 0.101055 1 
1828 1 7.39477 48.3471 -3.95319 0.233329 1 
1829 1 4.73301 49.0521 -3.22427 1.14502 1 
1830 1 5.81447 46.4342 -2.56562 7.07812 5 
1831 1 3.08668 47.1223 -2.07419 6.20057 5 
1870 1 16.5492 46.7738 -14.8855 3.65577e-05 1 
1871 1 17.6315 44.267 -14.0073 7.40336e-05 1 
1872 1 14.9258 44.9576 -13.376 0.000101409 1 
1873 1 17.0922 46.3403 -12.1124 0.000119457 1 
1874 1 14.3862 47.0322 -11.4804 0.000169383 1 
1875 1 15.4687 44.5262 -10.6046 0.000668552 1 
1876 1 12.7636 45.2199 -9.97143 0.000670076 1 
1877 1 14.9308 46.6084 -8.71053 0.0021699 1 
1878 1 12.2289 47.3009 -8.06706 0.00503444 1 
1879 1 13.3045 44.8114 -7.20242 0.00991377 1 
1880 1 10.6143 45.5069 -6.56801 0.0122055 1 
1881 1 12.7813 46.9263 -5.25496 0.101055 1 
1882 1 10.083 47.6236 -4.67685 0.167057 1 
1883 1 11.1873 45.073 -3.8176 0.261029 1 
1884 1 8.44067 45.7848 -3.24635 0.119163 1 
1885 1 10.6635 47.1223 -2.07419 6.20059 5 
1918 1 20.3372 43.577 -14.6395 6.82333e-05 1 
1919 1 22.5027 44.9576 -13.376 0.00010141 1 
1920 1 19.7972 45.6488 -12.7436 8.79843e-05 1 
1921 1 20.8786 43.1413 -11.8635 0.000319021 1 
1922 1 18.1737 43.8327 -11.2323 0.000266194 1 
1923 1 20.3404 45.2199 -9.97143 0.000670055 1 
1924 1 17.6382 45.9137 -9.34131 0.00088806 1 
1925 1 18.7157 43.4055 -8.46134 0.00174853 1 
1926 1 16.012 44.1097 -7.84439 0.00730785 1 
1927 1 18.1912 45.5069 -6.56801 0.0122055 1 
1928 1 15.4754 46.2204 -5.93981 0.0343269 1 
1929 1 16.5624 43.692 -5.1283 0.0515373 1 
1930 1 13.8572 44.3775 -4.47935 0.0431081 1 
1931 1 16.0175 45.7848 -3.24635 0.119164 1 
1932 1 13.3913 46.4342 -2.56562 7.07812 5 
1955 1 27.914 43.577 -14.6395 6.82332e-05 1 
1956 1 25.2084 44.267 -14.0073 7.40341e-05 1 
1957 1 26.2903 41.7607 -13.125 0.000174973 1 
1958 1 23.5846 42.4503 -12.4935 0.000247428 1 
1959 1 25.7505 43.8327 -11.2323 0.000266194 1 
1960 1 23.0455 44.5262 -10.6046 0.000668537 1 
1961 1 24.1254 42.0146 -9.71701 0.00154269 1 
1962 1 21.4189 42.7114 -9.0944 0.00287623 1 
1963 1 23.5889 44.1097 -7.84439 0.00730783 1 
1964 1 20.8813 44.8114 -7.20242 0.00991367 1 
1965 1 21.9586 42.2856 -6.35526 0.0237076 1 
1966 1 19.2515 42.9771 -5.70102 0.0207097 1 
1967 1 21.4341 44.3775 -4.47935 0.0431071 1 
1968 1 18.7642 45.073 -3.8176 0.261026 1 
1969 1 19.8174 42.6196 -2.91243 0.322295 1 
1970 1 17.1755 43.3196 -2.43963 0.507194 1 
1986 1 31.7027 40.3833 -14.3897 0.000118709 1 
1987 1 28.9966 41.0718 -13.7569 0.000142761 1 
1988 1 31.1614 42.4503 -12.4935 0.000247426 1 
1989 1 28.4555 43.1413 -11.8635 0.000319028 1 
1990 1 29.5377 40.6333 -10.9741 0.000777943 1 
1991 1 26.8303 41.3233 -10.3466 0.00105417 1 
1992 1 28.9957 42.7114 -9.0944 0.00287617 1 
1993 1 26.2926 43.4055 -8.46134 0.00174856 1 
1994 1 27.3678 40.8859 -7.5788 0.00983083 1 
1995 1 24.6673 41.5758 -6.94834 0.0109433 1 
1996 1 26.8284 42.9771 -5.70102 0.0207109 1 
1997 1 24.1393 43.692 -5.1283 0.0515371 1 
1998 1 25.1945 41.1243 -4.17302 0.139536 1 
1999 1 22.5114 41.8987 -3.65092 0.258748 1 
2000 1 24.7524 43.3196 -2.43962 0.507155 1 
2007 1 36.5734 41.0718 -13.7569 0.000142764 1 
2008 1 33.8671 41.7607 -13.125 0.000174973 1 
2009 1 34.9504 39.2574 -12.2383 0.000310115 1 
2010 1 32.2437 39.9447 -11.6045 0.000567149 1 
2011 1 34.4071 41.3233 -10.3466 0.00105422 1 
2012 1 31.7023 42.0146 -9.71701 0.00154275 1 
2013 1 32.784 39.5029 -8.81411 0.00380307 1 
2014 1 30.0792 40.1911 -8.19 0.00621196 1 
2015 1 32.2442 41.5758 -6.94834 0.0109431 1 
2016 1 29.5355 42.2856 -6.35526 0.0237052 1 
2017 1 30.6188 39.7594 -5.39421 0.0441803 1 
2018 1 27.895 40.4853 -4.83858 0.0990987 1 
2019 1 30.0883 41.8987 -3.65093 0.258764 1 
2020 1 27.3943 42.6196 -2.91243 0.32228 1 
2021 1 28.4058 40.0683 -2.18773 5.53979 5 
2023 1 -0.227333 38.5701 -12.8712 0.000294912 1 
2024 1 -0.769706 40.6333 -10.9741 0.000777914 1 
2025 1 35.4923 38.8172 -9.44821 0.00200759 1 
2026 1 -0.22825 40.1911 -8.19 0.00621245 1 
2027 1 34.9446 40.8859 -7.5788 0.009831 1 
2028 1 36.0349 38.3783 -6.6465 0.0147728 1 
2029 1 33.3271 39.0615 -6.00817 0.0219012 1 
2030 1 35.4718 40.4853 -4.83856 0.0990741 1 
2031 1 32.7713 41.1243 -4.17302 0.139543 1 
2032 1 33.8676 38.5986 -3.17422 2.06296 5 
2033 1 31.1346 39.2392 -2.51703 6.70735 5 
2037 1 36.5754 37.9407 -3.85686 1.61923 5 
2038 1 35.9826 40.0683 -2.18779 5.54024 5 
2777 1 1.3955 46.7738 -14.8855 3.65572e-05 1 
2778 1 2.47779 44.267 -14.0073 7.40335e-05 1 
2779 1 1.93851 46.3403 -12.1124 0.000119459 1 
2780 1 0.314943 44.5262 -10.6046 0.000668539 1 
2839 1 5.18346 43.577 -14.6395 6.82337e-05 1 
2840 1 7.34895 44.9576 -13.376 0.00010141 1 
2841 1 4.64348 45.6488 -12.7436 8.79852e-05 1 
2842 1 5.7249 43.1413 -11.8635 0.000319026 1 
2843 1 3.01996 43.8327 -11.2323 0.000266195 1 
2844 1 5.18673 45.2199 -9.97143 0.000670068 1 
2845 1 2.48449 45.9137 -9.34131 0.000888068 1 
2846 1 3.562 43.4055 -8.46134 0.00174855 1 
2847 1 0.858294 44.1097 -7.84439 0.00730783 1 
2848 1 3.03747 45.5069 -6.56801 0.012206 1 
2849 1 0.321714 46.2204 -5.93981 0.0343269 1 
2850 1 1.40868 43.692 -5.1283 0.0515371 1 
2851 1 0.863814 45.7849 -3.24635 0.119161 1 
2900 1 12.7603 43.577 -14.6395 6.82332e-05 1 
2901 1 10.0546 44.267 -14.0073 7.40351e-05 1 
2902 1 11.1365 41.7607 -13.125 0.000174973 1 
2903 1 8.43086 42.4503 -12.4935 0.000247426 1 
2904 1 10.5968 43.8327 -11.2323 0.000266189 1 
2905 1 7.8918 44.5262 -10.6046 0.000668549 1 
2906 1 8.97171 42.0146 -9.71701 0.00154274 1 
2907 1 6.26516 42.7114 -9.0944 0.00287619 1 
2908 1 8.43515 44.1097 -7.84439 0.00730788 1 
2909 1 5.72761 44.8114 -7.20242 0.00991381 1 
2910 1 6.80489 42.2856 -6.35526 0.0237058 1 
2911 1 4.0978 42.9771 -5.70102 0.0207107 1 
2912 1 6.28034 44.3775 -4.47935 0.0431081 1 
2913 1 3.61045 45.073 -3.81761 0.261023 1 
2914 1 4.6637 42.6196 -2.91243 0.322283 1 
2915 1 2.02181 43.3196 -2.43962 0.507156 1 
2959 1 16.549 40.3833 -14.3897 0.000118709 1 
2960 1 13.8429 41.0718 -13.7569 0.000142762 1 
2961 1 16.0077 42.4503 -12.4935 0.000247428 1 
2962 1 13.3018 43.1413 -11.8635 0.000319024 1 
2963 1 14.384 40.6333 -10.9741 0.000777932 1 
2964 1 11.6766 41.3233 -10.3466 0.00105419 1 
2965 1 13.842 42.7114 -9.0944 0.00287619 1 
2966 1 11.1389 43.4055 -8.46134 0.00174857 1 
2967 1 12.2141 40.8859 -7.5788 0.00983088 1 
2968 1 9.51361 41.5758 -6.94834 0.010943 1 
2969 1 11.6747 42.9771 -5.70102 0.0207101 1 
2970 1 8.98554 43.692 -5.1283 0.0515373 1 
2971 1 10.0408 41.1243 -4.17302 0.139543 1 
2972 1 7.35768 41.8987 -3.65093 0.25876 1 
2973 1 9.59868 43.3196 -2.43963 0.5072 1 
3008 1 21.4197 41.0718 -13.7569 0.000142765 1 
3009 1 18.7134 41.7607 -13.125 0.000174972 1 
3010 1 19.7967 39.2574 -12.2383 0.000310115 1 
3011 1 17.09 39.9447 -11.6045 0.000567147 1 
3012 1 19.2534 41.3233 -10.3466 0.00105422 1 
3013 1 16.5486 42.0146 -9.71701 0.00154272 1 
3014 1 17.6303 39.5029 -8.81411 0.00380309 1 
3015 1 14.9255 40.1911 -8.19 0.00621214 1 
3016 1 17.0905 41.5758 -6.94834 0.0109433 1 
3017 1 14.3817 42.2856 -6.35526 0.0237059 1 
3018 1 15.4651 39.7594 -5.39421 0.0441783 1 
3019 1 12.7413 40.4853 -4.83857 0.0990902 1 
3020 1 14.9345 41.8987 -3.65093 0.258758 1 
3021 1 12.2406 42.6196 -2.91243 0.32229 1 
3022 1 13.252 40.0683 -2.18775 5.53995 5 
3048 1 24.1258 40.3833 -14.3897 0.000118708 1 
3049 1 25.2093 37.8832 -13.5073 0.000132286 1 
3050 1 22.5032 38.5701 -12.8712 0.000294911 1 
3051 1 24.6668 39.9447 -11.6045 0.000567169 1 
3052 1 21.9609 40.6333 -10.9741 0.000777915 1 
3053 1 23.0457 38.1313 -10.0771 0.00173983 1 
3054 1 20.3386 38.8172 -9.44821 0.0020076 1 
3055 1 22.5023 40.1911 -8.19 0.00621247 1 
3056 1 19.7909 40.8859 -7.5788 0.00983102 1 
3057 1 20.8812 38.3783 -6.6465 0.0147727 1 
3058 1 18.1734 39.0615 -6.00816 0.0219012 1 
3059 1 20.3181 40.4853 -4.83856 0.0990731 1 
3060 1 17.6176 41.1243 -4.17302 0.139539 1 
3061 1 18.7139 38.5987 -3.17422 2.06296 5 
3062 1 15.9809 39.2392 -2.51703 6.70747 5 
3080 1 30.6216 36.5082 -14.7796 7.47057e-05 1 
3081 1 27.9156 37.1958 -14.143 0.000122823 1 
3082 1 30.0801 38.5701 -12.8712 0.000294915 1 
3083 1 27.3736 39.2574 -12.2383 0.00031014 1 
3084 1 28.4582 36.7603 -11.3521 0.0006132 1 
3085 1 25.7513 37.4467 -10.7162 0.000523215 1 
3086 1 27.9155 38.8172 -9.44821 0.00200734 1 
3087 1 25.2072 39.5029 -8.81411 0.0038029 1 
3088 1 26.294 37.0118 -7.91546 0.00206676 1 
3089 1 23.5903 37.6941 -7.26478 0.00958066 1 
3090 1 25.7502 39.0615 -6.00816 0.0219054 1 
3091 1 23.042 39.7594 -5.39421 0.0441746 1 
3092 1 24.1324 37.2642 -4.44342 0.434223 1 
3093 1 21.4217 37.9407 -3.85686 1.61923 5 
3094 1 23.5578 39.2392 -2.51704 6.7077 5 
3095 1 20.8289 40.0683 -2.18779 5.54026 5 
3104 1 35.4925 37.1958 -14.143 0.000122823 1 
3105 1 32.7861 37.8832 -13.5073 0.000132288 1 
3106 1 33.8696 35.3866 -12.6299 0.000155714 1 
3107 1 31.1638 36.0739 -11.9906 0.000280531 1 
3108 1 33.3281 37.4467 -10.7162 0.000523212 1 
3109 1 30.6225 38.1313 -10.0771 0.0017398 1 
3110 1 31.7066 35.6413 -9.19464 0.00121923 1 
3111 1 29.0031 36.3259 -8.55025 0.00348818 1 
3112 1 31.1672 37.6941 -7.26478 0.00958112 1 
3113 1 28.458 38.3783 -6.6465 0.0147766 1 
3114 1 29.5525 35.8884 -5.74183 0.0516121 1 
3115 1 26.8328 36.5729 -5.11186 0.0641398 1 
3116 1 28.9986 37.9406 -3.85686 1.6192 5 
3117 1 26.2907 38.5986 -3.17422 2.06298 5 
3118 1 27.5382 36.1986 -2.20964 7.63694 5 
3121 1 36.5754 34.6988 -13.2681 0.000132675 1 
3122 1 36.0351 36.7603 -11.3521 0.000613202 1 
3123 1 37.1174 34.267 -10.4802 0.000570926 1 
3124 1 34.412 34.9546 -9.8397 0.000609773 1 
3125 1 36.5799 36.3259 -8.55024 0.0034881 1 
3126 1 33.8709 37.0118 -7.91546 0.00206667 1 
3127 1 34.9553 34.521 -7.0506 0.00376491 1 
3128 1 32.2501 35.2076 -6.39345 0.0168874 1 
3129 1 34.4096 36.5729 -5.11186 0.0641403 1 
3130 1 31.7093 37.2642 -4.44343 0.434234 1 
3131 1 32.843 34.8519 -3.51619 0.6511 1 
3132 1 30.2172 35.514 -2.79234 3.41265 5 
3135 1 -0.224397 33.8329 -7.69278 0.00174708 1 
3136 1 37.1293 35.8884 -5.74183 0.0516149 1 
3137 1 35.5268 34.1198 -4.26435 0.204105 1 
3138 1 -0.0902613 35.514 -2.79234 3.4126 5 
3139 1 35.1151 36.1986 -2.20964 7.63689 5 
3874 1 1.39525 40.3833 -14.3897 0.000118708 1 
3875 1 0.854006 42.4503 -12.4935 0.000247429 1 
3936 1 6.26602 41.0718 -13.7569 0.000142762 1 
3937 1 3.55968 41.7607 -13.125 0.000174973 1 
3938 1 4.643 39.2574 -12.2383 0.000310134 1 
3939 1 1.93628 39.9447 -11.6045 0.000567162 1 
3940 1 4.0997 41.3233 -10.3466 0.00105418 1 
3941 1 1.39485 42.0146 -9.71701 0.00154269 1 
3942 1 2.47662 39.5029 -8.81411 0.00380296 1 
3943 1 1.93675 41.5758 -6.94834 0.0109434 1 
3944 1 0.311382 39.7594 -5.39421 0.0441748 1 
3997 1 8.97211 40.3833 -14.3897 0.000118708 1 
3998 1 10.0556 37.8832 -13.5073 0.000132287 1 
3999 1 7.34952 38.5701 -12.8712 0.000294914 1 
4000 1 9.51313 39.9447 -11.6045 0.000567163 1 
4001 1 6.80715 40.6333 -10.9741 0.000777939 1 
4002 1 7.89194 38.1313 -10.0771 0.00173981 1 
4003 1 5.18489 38.8172 -9.44821 0.00200742 1 
4004 1 7.34861 40.1911 -8.19 0.0062121 1 
4005 1 4.63722 40.8859 -7.5788 0.00983087 1 
4006 1 5.72747 38.3783 -6.6465 0.0147754 1 
4007 1 3.01965 39.0615 -6.00816 0.0219042 1 
4008 1 5.1644 40.4853 -4.83857 0.099092 1 
4009 1 2.46391 41.1243 -4.17302 0.139535 1 
4010 1 3.56014 38.5986 -3.17422 2.06297 5 
4011 1 0.827183 39.2392 -2.51704 6.70769 5 
4057 1 15.4679 36.5082 -14.7796 7.4706e-05 1 
4058 1 12.7619 37.1958 -14.143 0.000122823 1 
4059 1 14.9264 38.5701 -12.8712 0.000294914 1 
4060 1 12.2199 39.2574 -12.2383 0.000310131 1 
4061 1 13.3045 36.7603 -11.3521 0.000613203 1 
4062 1 10.5975 37.4467 -10.7162 0.000523216 1 
4063 1 12.7618 38.8172 -9.44821 0.00200743 1 
4064 1 10.0535 39.5029 -8.81411 0.00380295 1 
4065 1 11.1403 37.0118 -7.91546 0.0020667 1 
4066 1 8.43663 37.6941 -7.26478 0.00958084 1 
4067 1 10.5965 39.0615 -6.00816 0.0219038 1 
4068 1 7.88824 39.7594 -5.39421 0.0441789 1 
4069 1 8.97872 37.2642 -4.44343 0.434229 1 
4070 1 6.26802 37.9406 -3.85686 1.61921 5 
4071 1 8.40403 39.2392 -2.51703 6.70744 5 
4072 1 5.67517 40.0683 -2.18775 5.53992 5 
4109 1 20.3388 37.1958 -14.143 0.000122823 1 
4110 1 17.6324 37.8832 -13.5073 0.000132288 1 
4111 1 18.7158 35.3866 -12.6299 0.000155715 1 
4112 1 16.01 36.0739 -11.9906 0.000280533 1 
4113 1 18.1744 37.4467 -10.7162 0.000523211 1 
4114 1 15.4688 38.1313 -10.0771 0.00173981 1 
4115 1 16.5529 35.6413 -9.19464 0.0012192 1 
4116 1 13.8494 36.3259 -8.55025 0.00348811 1 
4117 1 16.0135 37.6941 -7.26478 0.00958098 1 
4118 1 13.3043 38.3783 -6.6465 0.0147753 1 
4119 1 14.3987 35.8884 -5.74183 0.0516136 1 
4120 1 11.6791 36.5729 -5.11186 0.0641403 1 
4121 1 13.8449 37.9406 -3.85686 1.61921 5 
4122 1 11.137 38.5986 -3.17422 2.06297 5 
4123 1 12.3845 36.1986 -2.20964 7.63692 5 
4151 1 23.0447 36.5082 -14.7796 7.47053e-05 1 
4152 1 24.1273 34.0105 -13.9066 0.000101464 1 
4153 1 21.4216 34.6988 -13.2681 0.000132675 1 
4154 1 23.5869 36.0739 -11.9906 0.000280536 1 
4155 1 20.8814 36.7603 -11.3521 0.0006132 1 
4156 1 21.9637 34.267 -10.4802 0.000570932 1 
4157 1 19.2583 34.9546 -9.8397 0.00060977 1 
4158 1 21.4262 36.3259 -8.55024 0.00348815 1 
4159 1 18.7172 37.0118 -7.91546 0.00206671 1 
4160 1 19.8016 34.521 -7.0506 0.00376498 1 
4161 1 17.0964 35.2076 -6.39345 0.0168879 1 
4162 1 19.2559 36.5729 -5.11186 0.0641399 1 
4163 1 16.5556 37.2642 -4.44343 0.434232 1 
4164 1 17.6893 34.8519 -3.51619 0.651096 1 
4165 1 15.0634 35.514 -2.79234 3.41263 5 
4186 1 26.8332 33.3218 -14.5448 7.33837e-05 1 
4187 1 28.9985 34.6988 -13.2681 0.000132678 1 
4188 1 26.2927 35.3866 -12.6299 0.000155718 1 
4189 1 27.3744 32.8896 -11.7616 0.000257296 1 
4190 1 24.6688 33.5787 -11.1212 0.000413083 1 
4191 1 26.8352 34.9546 -9.8397 0.000609762 1 
4192 1 24.1298 35.6413 -9.19464 0.00121916 1 
4193 1 25.2104 33.1466 -8.33636 0.0018667 1 
4194 1 22.5062 33.8329 -7.69278 0.00174703 1 
4195 1 24.6733 35.2076 -6.39345 0.0168887 1 
4196 1 21.9756 35.8884 -5.74183 0.0516143 1 
4197 1 23.0544 33.4181 -4.89913 0.139309 1 
4198 1 20.3731 34.1198 -4.26435 0.204104 1 
4199 1 22.6403 35.514 -2.79234 3.4126 5 
4200 1 19.9614 36.1986 -2.20964 7.6369 5 
4211 1 34.41 33.3218 -14.5448 7.33838e-05 1 
4212 1 31.7042 34.0105 -13.9066 0.000101465 1 
4213 1 32.7855 31.511 -13.0404 0.000154242 1 
4214 1 30.0798 32.2004 -12.4014 0.000200938 1 
4215 1 32.2457 33.5787 -11.1212 0.000413075 1 
4216 1 29.5405 34.267 -10.4802 0.000570917 1 
4217 1 30.6197 31.7666 -9.62302 0.000649161 1 
4218 1 27.9158 32.4561 -8.97996 0.000794881 1 
4219 1 30.083 33.8329 -7.69278 0.00174719 1 
4220 1 27.3785 34.521 -7.0506 0.00376522 1 
4221 1 28.4594 32.02 -6.20026 0.020875 1 
4222 1 25.7501 32.7361 -5.54819 0.083726 1 
4223 1 27.95 34.1198 -4.26434 0.204102 1 
4224 1 25.2661 34.8519 -3.51619 0.65109 1 
4225 1 26.2954 32.2017 -2.88041 0.123147 1 
4226 1 23.6608 32.8403 -2.26701 5.83602 5 
4230 1 35.4913 30.8212 -13.6785 0.000100845 1 
4231 1 -0.227622 32.2004 -12.4014 0.000200933 1 
4232 1 34.9513 32.8896 -11.7616 0.000257286 1 
4233 1 36.0308 30.3866 -10.9021 0.000306997 1 
4234 1 33.3253 31.0773 -10.2639 0.000624164 1 
4235 1 35.4927 32.4561 -8.97996 0.000794939 1 
4236 1 32.7873 33.1466 -8.33636 0.00186678 1 
4237 1 33.8605 30.6434 -7.49781 0.0116344 1 
4238 1 31.1556 31.3313 -6.85339 0.0143596 1 
4239 1 33.327 32.7361 -5.54819 0.0837274 1 
4240 1 30.6313 33.4181 -4.89912 0.139308 1 
4241 1 31.6942 30.8292 -4.13892 0.0479971 1 
4242 1 29.0135 31.5101 -3.45132 0.191997 1 
4243 1 31.2377 32.8403 -2.26702 5.83603 5 
4247 1 36.5671 29.9457 -8.13141 0.00288265 1 
4248 1 36.0363 32.02 -6.20026 0.0208757 1 
4249 1 37.0957 29.4704 -5.37372 0.0135118 1 
4250 1 34.4009 30.1626 -4.78712 0.0486181 1 
4251 1 36.5904 31.5101 -3.45132 0.191996 1 
4252 1 33.8722 32.2017 -2.88042 0.123117 1 
4253 1 35.0034 29.6701 -2.1034 0.486997 1 
4255 1 -0.240336 28.9957 -2.59705 0.215754 1 
4971 1 0.31416 36.5082 -14.7796 7.47058e-05 1 
5035 1 5.18507 37.1958 -14.143 0.000122823 1 
5036 1 2.4787 37.8832 -13.5073 0.000132287 1 
5037 1 3.56213 35.3866 -12.6299 0.000155716 1 
5038 1 0.856325 36.0739 -11.9906 0.000280534 1 
5039 1 3.02069 37.4467 -10.7162 0.00052322 1 
5040 1 0.315087 38.1313 -10.0771 0.00173983 1 
5041 1 1.39919 35.6413 -9.19464 0.00121917 1 
5042 1 0.859778 37.6941 -7.26478 0.00958065 1 
5096 1 7.89102 36.5082 -14.7796 7.47054e-05 1 
5097 1 8.97363 34.0105 -13.9066 0.000101465 1 
5098 1 6.26794 34.6988 -13.2681 0.000132677 1 
5099 1 8.43318 36.0739 -11.9906 0.000280534 1 
5100 1 5.72768 36.7603 -11.3521 0.000613205 1 
5101 1 6.80996 34.267 -10.4802 0.000570924 1 
5102 1 4.10462 34.9546 -9.8397 0.000609761 1 
5103 1 6.27251 36.3259 -8.55025 0.00348809 1 
5104 1 3.56346 37.0118 -7.91546 0.00206666 1 
5105 1 4.64791 34.521 -7.0506 0.00376504 1 
5106 1 1.9427 35.2076 -6.39345 0.0168882 1 
5107 1 4.1022 36.5729 -5.11186 0.0641405 1 
5108 1 1.40186 37.2642 -4.44342 0.434226 1 
5109 1 2.53556 34.8519 -3.51619 0.651089 1 
5157 1 11.6795 33.3218 -14.5448 7.33839e-05 1 
5158 1 13.8448 34.6988 -13.2681 0.000132676 1 
5159 1 11.139 35.3866 -12.6299 0.000155716 1 
5160 1 12.2207 32.8896 -11.7616 0.000257291 1 
5161 1 9.51512 33.5787 -11.1212 0.000413079 1 
5162 1 11.6815 34.9546 -9.8397 0.000609766 1 
5163 1 8.97604 35.6413 -9.19464 0.00121919 1 
5164 1 10.0567 33.1466 -8.33636 0.00186675 1 
5165 1 7.35246 33.8329 -7.69278 0.0017471 1 