ITEM: TIMESTEP
0
ITEM: NUMBER OF ATOMS
4834
ITEM: BOX BOUNDS xy xz yz pp pp ss
-8.7369738199999993e+00 6.1953087089999997e+01 -8.7369738199999993e+00
0.0000000000000000e+00 4.3778636782000000e+01 0.0000000000000000e+00
-8.6611898927745202e+01 9.1104592472051294e+01 0.0000000000000000e+00
ITEM: ATOMS id type x y z c_csym c_cna 
1 1 61.8482 0.00957281 -0.677597 7.32011 5 
2 1 1.41132 2.25197 -1.24885 0.620648 1 
3 1 4.62149 0.147322 -1.10165 4.14796 5 
4 1 0.522198 4.94404 -0.377712 6.38903 5 
5 1 3.96618 3.06282 -0.329998 7.10651 5 
6 1 8.17336 1.85465 0.935686 10.3523 5 
7 1 0.477873 0.345291 -6.58343 0.00565648 1 
8 1 0.0680744 3.93847 -3.12663 0.10725 1 
9 1 0.86788 1.27594 -3.8915 0.114347 1 
10 1 2.32971 3.53059 -4.88253 0.0209382 1 
11 1 3.13832 0.87546 -5.62217 0.0242648 1 
12 1 3.5885 1.85365 -2.9743 0.350832 1 
13 1 5.82956 1.40162 -4.56625 0.186157 1 
14 1 0.718449 8.79312 -3.45306 0.0571981 1 
15 1 1.51805 6.17999 -4.15823 0.0305947 1 
16 1 1.90698 7.10176 -1.43087 8.30367 5 
17 1 2.73539 4.52482 -2.2559 1.3177 5 
18 1 4.1573 6.73581 -3.2083 0.102749 1 
19 1 5.03393 4.02457 -3.9444 0.245234 1 
20 1 5.45997 5.03428 -1.42561 8.16922 5 
21 1 6.35997 2.29219 -1.66162 6.37207 5 
22 1 7.68366 4.61556 -2.937 0.259196 1 
23 1 8.45992 1.86383 -3.59651 0.452611 1 
24 1 9.02847 3.11458 -1.13594 11.1514 5 
25 1 9.48037 0.211159 -1.30836 8.13074 5 
26 1 11.1334 2.43599 -2.74993 0.415161 1 
27 1 12.183 0.784822 -0.846965 7.34919 5 
28 1 14.5109 0.233332 -2.51334 0.341729 1 
29 1 -0.0885142 11.4399 -2.75844 0.0642527 1 
30 1 0.203307 12.4288 -0.175768 8.88717 5 
31 1 1.03204 9.66376 -0.833631 7.79318 5 
32 1 2.54853 11.9612 -1.74753 1.24327 5 
33 1 3.37521 9.39692 -2.43974 0.236224 1 
34 1 3.49214 10.3807 0.428201 5.23328 5 
35 1 4.47631 7.77851 -0.582707 5.74108 5 
36 1 6.1273 9.86872 -1.34534 5.08176 5 
37 1 6.84918 7.27273 -2.15284 0.552729 1 
38 1 8.17766 5.71665 -0.0977477 6.00945 5 
39 1 9.54816 7.71627 -1.47964 6.96637 5 
40 1 10.4178 5.18999 -2.00008 6.45836 5 
41 1 11.7383 3.43655 -0.0993063 9.29119 5 
42 1 13.0032 5.63532 -1.10823 7.37972 5 
43 1 13.8451 2.97626 -1.78436 0.24215 1 
44 1 14.8551 1.15383 0.00222153 11.0115 5 
45 1 16.5689 3.40878 -0.780315 6.1128 5 
46 1 17.1718 0.807977 -1.48011 0.565625 1 
47 1 19.6395 1.57009 -0.24977 7.37294 5 
48 1 0.725632 18.3318 0.107115 11.8125 5 
49 1 1.98265 14.5468 -1.01833 7.50465 5 
50 1 4.55813 15.0343 0.0867587 10.3437 5 
51 1 5.19306 12.4126 -0.942553 11.3733 5 
52 1 7.64642 12.3755 0.574357 8.19232 5 
53 1 8.86593 10.2254 -0.52937 6.9028 5 
54 1 12.4031 8.228 -0.214949 7.17758 5 
55 1 14.674 6.85614 0.623697 4.16977 5 
56 1 19.2733 4.35247 -0.01731 9.76112 5 
57 1 1.55124 1.66463 -10.2287 0.000332998 1 
58 1 -5.99047 43.7177 -8.29035 0.00225539 1 
59 1 -0.0440469 6.96374 -8.76974 0.000695775 1 
60 1 0.753273 4.31512 -9.49636 0.000378516 1 
61 1 1.14187 5.24144 -6.82259 0.00322497 1 
62 1 1.94304 2.59445 -7.5528 0.00148096 1 
63 1 3.41014 4.84038 -8.53205 0.000504311 1 
64 1 4.2089 2.18802 -9.26048 0.00105928 1 
65 1 4.60981 3.11088 -6.58683 0.0112274 1 
66 1 5.40808 0.468169 -7.29078 0.0157338 1 
67 1 6.86497 2.70825 -8.28384 0.00181358 1 
68 1 7.65548 0.0579698 -9.01276 0.00172578 1 
69 1 8.05812 0.972167 -6.31161 0.0109405 1 
70 1 10.2986 0.574103 -8.04702 0.000981777 1 
71 1 0.343263 7.88556 -6.10552 0.00526637 1 
72 1 1.81585 10.1415 -7.08428 0.00117447 1 
73 1 2.61253 7.49046 -7.80531 0.000669451 1 
74 1 2.99938 8.42601 -5.13084 0.00850313 1 
75 1 3.80349 5.76457 -5.85632 0.0100563 1 
76 1 5.26547 8.01652 -6.83178 0.00263421 1 
77 1 6.06623 5.36212 -7.55529 0.00451658 1 
78 1 6.45119 6.30382 -4.86381 0.0531141 1 
79 1 7.28105 3.62485 -5.59326 0.0230346 1 
80 1 8.71256 5.87846 -6.61501 0.014637 1 
81 1 9.51257 3.22502 -7.31797 0.0025296 1 
82 1 9.91629 4.14841 -4.62771 0.0715107 1 
83 1 10.6934 1.47382 -5.3559 0.0259542 1 
84 1 12.1574 3.74418 -6.37907 0.00780614 1 
85 1 12.9417 1.09327 -7.09636 0.00188552 1 
86 1 13.3589 2.0043 -4.42798 0.0298948 1 
87 1 15.5943 1.61764 -6.14567 0.00309518 1 
88 1 8.04102 43.6714 -4.1958 0.025178 1 
89 1 0.23998 15.4658 -5.56745 0.0486527 1 
90 1 1.02869 12.796 -6.35945 0.00922394 1 
91 1 1.44905 13.708 -3.71003 0.0905161 1 
92 1 2.20124 11.0596 -4.41604 0.0163583 1 
93 1 3.6911 13.3149 -5.37317 0.0106073 1 
94 1 4.47525 10.6628 -6.11806 0.0115216 1 
95 1 4.88028 11.5511 -3.47897 0.23781 1 
96 1 5.66108 8.94926 -4.13451 0.0397797 1 
97 1 7.14059 11.2023 -5.10988 0.0265532 1 
98 1 7.90889 8.5499 -5.88477 0.0174972 1 
99 1 8.29876 9.47368 -3.21138 0.20174 1 
100 1 9.11351 6.81245 -4.01338 0.210136 1 
101 1 10.5748 9.07222 -4.90324 0.0249687 1 
102 1 11.3787 6.40881 -5.65927 0.0136106 1 
103 1 11.8366 7.36668 -2.98968 0.102746 1 
104 1 12.5979 4.67469 -3.7479 0.0563603 1 
105 1 14.041 6.93886 -4.68411 0.01659 1 
106 1 14.828 4.27371 -5.41817 0.00537992 1 
107 1 15.2562 5.18093 -2.74425 2.15225 5 
108 1 16.0338 2.52589 -3.46411 0.0331186 1 
109 1 17.4766 4.79351 -4.45642 0.0274882 1 
110 1 18.2505 2.13985 -5.17945 0.0135649 1 
111 1 18.721 3.04881 -2.4906 0.55985 1 
112 1 19.4363 0.416004 -3.15589 0.260132 1 
113 1 20.88 2.69301 -4.2212 0.0533079 1 
114 1 21.6537 0.0308902 -4.96704 0.0255795 1 
115 1 22.0149 0.948967 -2.27994 1.11987 5 
116 1 24.2798 0.574612 -4.01921 0.16359 1 
117 1 -0.179927 19.0751 -2.30745 5.04893 5 
118 1 0.697842 16.4076 -2.8528 1.56 5 
119 1 2.10427 18.587 -3.94838 0.323277 1 
120 1 2.91771 15.9724 -4.58381 0.100121 1 
121 1 3.23822 16.9398 -1.70846 5.50305 5 
122 1 4.10528 14.2362 -2.68246 0.169351 1 
123 1 5.52081 16.4756 -3.56602 0.0802475 1 
124 1 6.34121 13.8359 -4.31726 0.0913581 1 
125 1 6.77035 14.734 -1.52888 2.81322 5 
126 1 7.56936 12.097 -2.3356 0.765445 1 
127 1 8.97237 14.3105 -3.40864 0.193482 1 
128 1 9.78556 11.7195 -4.09389 0.110077 1 
129 1 10.1647 12.6432 -1.21298 3.13014 5 
130 1 11.03 9.994 -2.21726 0.298643 1 
131 1 12.404 12.2458 -3.18992 0.144284 1 
132 1 13.2468 9.58448 -3.96509 0.0278247 1 
133 1 13.6714 10.5429 -1.37477 2.60907 5 
134 1 14.5333 7.86181 -1.97035 3.3498 5 
135 1 15.9236 10.0703 -3.04589 0.542375 1 
136 1 16.6776 7.46348 -3.68402 0.230296 1 
137 1 17.0788 8.28313 -0.592721 10.8324 5 
138 1 17.8157 5.80364 -1.78219 7.71512 5 
139 1 19.254 8.05127 -2.75384 0.42533 1 
140 1 20.0779 5.33052 -3.47395 0.217216 1 
141 1 20.6276 6.4108 -0.945087 9.32782 5 
142 1 21.4608 3.57964 -1.46395 3.83195 5 
143 1 22.7221 5.92983 -2.68395 2.65865 5 
144 1 23.5021 3.27658 -3.321 0.680701 1 
145 1 23.7094 4.85546 -0.350477 8.40633 5 
146 1 24.5277 1.73405 -1.34624 3.00432 5 
147 1 26.1262 3.82615 -2.28816 6.24875 5 
148 1 26.8881 1.17146 -2.976 6.05629 5 
149 1 27.2027 2.60702 0.161457 10.0525 5 
150 1 29.5253 1.71324 -2.2988 1.408 5 
151 1 30.8716 0.00957281 -0.677597 7.32011 5 
152 1 0.460408 24.0037 -2.45151 0.278629 1 
153 1 1.23124 21.3336 -3.21018 0.171998 1 
154 1 1.56117 22.4168 -0.585657 5.75165 5 
155 1 2.50991 19.6352 -1.46271 9.9787 5 
156 1 3.93176 21.8383 -2.11169 0.693156 1 
157 1 4.78649 19.1047 -2.83317 0.362723 1 
158 1 5.25212 20.2437 -0.0833042 6.44992 5 
159 1 5.90416 17.4278 -0.800164 4.25318 5 
160 1 7.40244 19.6352 -1.87439 5.5398 5 
161 1 8.13605 17.0158 -2.68967 0.245736 1 
162 1 8.79509 17.9262 -0.0752502 10.2524 5 
163 1 9.35625 15.3422 -0.906607 8.0937 5 
164 1 10.9174 17.5588 -1.78287 0.217946 1 
165 1 11.6476 14.8331 -2.53541 0.356283 1 
166 1 11.9527 15.7247 -0.00428948 10.8638 5 
167 1 12.8612 13.1356 -0.430293 8.61378 5 
168 1 14.3249 15.4407 -1.46287 0.688416 1 
169 1 15.0505 12.8202 -2.28909 0.227801 1 
170 1 16.3634 11.0893 -0.588663 8.83539 5 
171 1 17.77 13.3899 -1.24133 0.459645 1 
172 1 18.5935 10.6896 -1.9839 0.416938 1 
173 1 19.888 9.11729 -0.153185 10.3551 5 
174 1 21.3034 11.3348 -0.95006 5.02243 5 
175 1 21.9613 8.619 -1.89844 6.80595 5 
176 1 22.346 7.37029 0.858431 6.78361 5 
177 1 24.4541 9.15303 -0.910473 7.42095 5 
178 1 25.3826 6.4586 -1.82475 10.608 5 
179 1 27.9532 6.9382 -0.53027 4.55935 5 
180 1 28.7746 4.3559 -1.4331 6.26647 5 
181 1 31.4987 4.94404 -0.377712 6.38903 5 
182 1 32.3879 2.25197 -1.24885 0.620648 1 
183 1 34.9427 3.06282 -0.329998 7.10651 5 
184 1 35.598 0.147322 -1.10165 4.14796 5 
185 1 39.1499 1.85465 0.935686 10.3523 5 
186 1 0.572753 24.9983 0.433395 5.25837 5 
187 1 2.28317 27.0037 -0.946794 11.2854 5 
188 1 3.2229 24.4616 -1.34292 5.14863 5 
189 1 5.94825 24.7982 -0.521435 6.91143 5 
190 1 6.62773 22.2467 -1.4413 6.97671 5 
191 1 9.4871 22.7953 -0.205863 7.06768 5 
192 1 10.0223 20.1817 -1.07122 7.44525 5 
193 1 11.7538 21.4104 0.614083 4.14467 5 
194 1 13.6219 18.0097 -0.796403 6.12886 5 
195 1 16.407 18.8769 0.0448874 9.50205 5 
196 1 16.9248 16.1226 -0.335519 5.25299 5 
197 1 20.3647 14.0566 -0.500793 11.2936 5 
198 1 23.8721 11.8446 0.230429 10.0349 5 
199 1 27.0343 9.59271 0.261458 9.5835 5 
200 1 1.64264 29.6232 0.0852271 10.1992 5 
201 1 4.75332 26.9861 0.558869 7.71794 5 
202 1 -0.037697 2.46537 -14.8507 3.40462e-05 1 
203 1 0.358741 3.38982 -12.1727 9.20271e-05 1 
204 1 1.1551 0.738204 -12.9062 9.85032e-05 1 
205 1 2.61455 2.99252 -13.8908 5.54774e-05 1 
206 1 3.40969 0.340871 -14.6239 6.11376e-05 1 
207 1 3.8091 1.26448 -11.9421 0.000192389 1 
208 1 6.06024 0.866958 -13.6601 0.000101802 1 
209 1 1.02405 8.29592 -12.4284 8.53215e-05 1 
210 1 1.81928 5.64396 -13.1591 5.6833e-05 1 
211 1 2.21688 6.5671 -10.4814 0.000144102 1 
212 1 3.01304 3.91589 -11.2106 0.000150646 1 
213 1 4.47131 6.16981 -12.1962 0.000107226 1 
214 1 5.26593 3.51827 -12.9274 0.000108733 1 
215 1 5.66614 4.4398 -10.2425 0.000471715 1 
216 1 6.46111 1.7885 -10.9733 0.000339594 1 
217 1 7.91461 4.04261 -11.9651 8.60114e-05 1 
218 1 8.70799 1.39157 -12.6968 8.88574e-05 1 
219 1 9.10859 2.30986 -10.0081 0.000311828 1 
220 1 11.3536 1.91544 -11.7377 6.03893e-05 1 
221 1 12.5439 0.181238 -9.78206 0.000143786 1 
222 1 0.229433 10.9494 -11.6965 0.000176355 1 
223 1 0.627911 11.8738 -9.02432 0.00104737 1 
224 1 1.42138 9.21882 -9.75409 0.000274356 1 
225 1 2.88337 11.4763 -10.7322 0.000278223 1 
226 1 3.67698 8.82225 -11.4657 0.00014741 1 
227 1 4.07632 9.74436 -8.78824 0.000809936 1 
228 1 4.87035 7.09173 -9.51452 0.000418788 1 
229 1 6.32733 9.34983 -10.4997 0.000208026 1 
230 1 7.12049 6.69528 -11.234 9.6058e-05 1 
231 1 7.51812 7.61795 -8.55452 0.00114064 1 
232 1 8.31478 4.96112 -9.28241 0.000703211 1 
233 1 9.76836 7.22169 -10.273 0.000192909 1 
234 1 10.5617 4.56714 -11.0063 0.000115133 1 
235 1 10.9649 5.48576 -8.32713 0.00113832 1 
236 1 11.7539 2.83115 -9.05315 0.000433663 1 
237 1 13.2097 5.0927 -10.0488 0.000192325 1 
238 1 13.9991 2.44049 -10.7812 7.93795e-05 1 
239 1 14.4032 3.35638 -8.09729 0.000783059 1 
240 1 15.1895 0.705359 -8.82732 0.000197926 1 
241 1 16.6442 2.9676 -9.82621 0.000246554 1 
242 1 17.4336 0.318223 -10.5603 0.00019864 1 
243 1 17.8369 1.23058 -7.86936 0.00159731 1 
244 1 20.0748 0.850587 -9.60998 0.000298254 1 
245 1 -0.164132 14.5331 -8.27229 0.00426624 1 
246 1 1.29675 16.7779 -9.25585 0.000621867 1 
247 1 2.08975 14.1308 -9.98986 0.000870301 1 
248 1 2.49324 15.055 -7.29374 0.00808445 1 
249 1 3.28495 12.3998 -8.05332 0.00172279 1 
250 1 4.74132 14.6537 -9.01733 0.00115314 1 
251 1 5.53512 12.0036 -9.75989 0.000934311 1 
252 1 5.93906 12.9258 -7.05897 0.00914233 1 
253 1 6.72878 10.2761 -7.81291 0.00217734 1 
254 1 8.18181 12.5267 -8.7937 0.000630283 1 
255 1 8.97554 9.87719 -9.53222 0.000943314 1 
256 1 9.38024 10.8038 -6.83087 0.0107008 1 
257 1 10.1692 8.14568 -7.5902 0.0020098 1 
258 1 11.6218 10.4017 -8.57693 0.000582567 1 
259 1 12.4167 7.74692 -9.31566 0.000227767 1 
260 1 12.8222 8.66876 -6.63662 0.00175228 1 
261 1 13.6201 6.01132 -7.36621 0.00144757 1 
262 1 15.0657 8.2732 -8.362 0.00138467 1 
263 1 15.8562 5.62139 -9.08981 0.000820781 1 
264 1 16.2694 6.54384 -6.39246 0.00905376 1 
265 1 17.0517 3.88318 -7.14108 0.00191561 1 
266 1 18.4939 6.15462 -8.14133 0.00079229 1 
267 1 19.2853 3.4992 -8.87576 0.000379103 1 
268 1 19.6866 4.42084 -6.18997 0.00428027 1 
269 1 20.4749 1.76759 -6.91639 0.00141606 1 
270 1 21.9224 4.03411 -7.93457 0.00179921 1 
271 1 22.7149 1.38634 -8.66432 0.000661445 1 
272 1 23.1098 2.30717 -5.9718 0.00917594 1 
273 1 25.3567 1.92209 -7.72217 0.00143524 1 
274 1 26.5385 0.214631 -5.75793 0.0584181 1 
275 1 0.499755 19.4268 -8.52623 0.000916507 1 
276 1 0.88692 20.3482 -5.85163 0.0184373 1 
277 1 1.69742 17.6921 -6.5798 0.0130411 1 
278 1 3.15251 19.948 -7.53955 0.00804558 1 
279 1 3.95067 17.3001 -8.27793 0.00196628 1 
280 1 4.36329 18.2124 -5.57191 0.0271548 1 
281 1 5.14863 15.568 -6.31236 0.00905985 1 
282 1 6.59465 17.8177 -7.31067 0.00192453 1 
283 1 7.38699 15.1736 -8.05213 0.000715107 1 
284 1 7.77431 16.0779 -5.34786 0.0100995 1 
285 1 8.57769 13.4406 -6.09632 0.00790546 1 
286 1 10.0285 15.6952 -7.09663 0.00120493 1 
287 1 10.827 13.0498 -7.838 0.000796787 1 
288 1 11.2242 13.9557 -5.16146 0.0186061 1 
289 1 12.0251 11.3203 -5.88776 0.00682659 1 
290 1 13.4785 13.5773 -6.8823 0.000952688 1 
291 1 14.2707 10.9306 -7.62329 0.00104605 1 
292 1 14.6747 11.8445 -4.93192 0.0214657 1 
293 1 15.4768 9.19257 -5.6946 0.020162 1 
294 1 16.9163 11.4676 -6.65804 0.00442289 1 
295 1 17.7096 8.81051 -7.40338 0.00195417 1 
296 1 18.1251 9.7406 -4.70951 0.0263674 1 
297 1 18.8971 7.07521 -5.45008 0.01005 1 
298 1 20.3398 9.36177 -6.45307 0.00551791 1 
299 1 21.1264 6.69684 -7.20411 0.0032198 1 
300 1 21.4953 7.64426 -4.52989 0.0470393 1 
301 1 22.3036 4.96833 -5.2728 0.0270658 1 
302 1 23.7599 7.23752 -6.26601 0.00575461 1 
303 1 24.563 4.56837 -7.00283 0.00727563 1 
304 1 24.9677 5.48753 -4.37653 0.124016 1 
305 1 25.7498 2.84274 -5.03226 0.0324147 1 
306 1 27.2149 5.11298 -6.04491 0.0106136 1 
307 1 27.9975 2.46382 -6.78892 0.00918991 1 
308 1 28.3544 3.40573 -4.10979 0.0863673 1 
309 1 29.1686 0.740306 -4.89494 0.104179 1 
310 1 30.6505 2.99846 -5.82143 0.00914677 1 
311 1 31.4544 0.345291 -6.58343 0.00565648 1 
312 1 31.8444 1.27594 -3.8915 0.114347 1 
313 1 34.1149 0.87546 -5.62217 0.0242648 1 
314 1 0.0871576 23.0154 -5.13167 0.013138 1 
315 1 1.56548 25.247 -6.1148 0.0125555 1 
316 1 2.35814 22.5937 -6.81518 0.00814372 1 
317 1 2.75358 23.5277 -4.12298 0.0473008 1 
318 1 3.53787 20.8586 -4.81248 0.130281 1 
319 1 4.99546 23.1135 -5.86044 0.0144886 1 
320 1 5.7908 20.4597 -6.59344 0.0120652 1 
321 1 6.18533 21.3449 -3.96348 0.20485 1 
322 1 6.99068 18.7271 -4.60702 0.0276675 1 
323 1 8.45014 20.9828 -5.63934 0.00716456 1 
324 1 9.23764 18.3351 -6.36627 0.00369661 1 
325 1 9.64014 19.2454 -3.70928 0.0505674 1 
326 1 10.4236 16.599 -4.40897 0.0357018 1 
327 1 11.8974 18.8662 -5.40253 0.00551412 1 
328 1 12.6784 16.2232 -6.14761 0.00342334 1 
329 1 13.1217 17.1255 -3.46785 0.0273859 1 
330 1 13.8897 14.5023 -4.20272 0.0203326 1 
331 1 15.3333 16.7603 -5.19818 0.0119007 1 
332 1 16.127 14.1149 -5.91549 0.00545032 1 
333 1 16.5273 15.0545 -3.209 0.0950059 1 
334 1 17.3236 12.3953 -3.94382 0.0583152 1 
335 1 18.7557 14.6668 -4.97484 0.0088982 1 
336 1 19.5467 12.0159 -5.71605 0.00500523 1 
337 1 19.9676 12.9411 -3.02948 0.13609 1 
338 1 20.7512 10.325 -3.75442 0.068 1 
339 1 22.1886 12.5586 -4.79906 0.0225137 1 
340 1 22.9734 9.90694 -5.5045 0.0156838 1 
341 1 23.387 10.8885 -2.79534 0.24876 1 
342 1 24.1506 8.19253 -3.60707 0.0454404 1 
343 1 25.606 10.4326 -4.58669 0.0188801 1 
344 1 26.4029 7.76476 -5.30918 0.0216923 1 
345 1 26.7592 8.73335 -2.61842 0.2389 1 
346 1 27.6214 6.06272 -3.34163 0.109752 1 
347 1 29.0413 8.27144 -4.40911 0.0640864 1 
348 1 29.857 5.64101 -5.07438 0.0196545 1 
349 1 30.2493 6.58275 -2.35867 2.46841 5 
350 1 31.0446 3.93847 -3.12663 0.10725 1 
351 1 32.4946 6.17999 -4.15823 0.0305947 1 
352 1 33.3062 3.53059 -4.88253 0.0209382 1 
353 1 33.7119 4.52482 -2.2559 1.3177 5 
354 1 34.565 1.85365 -2.9743 0.350832 1 
355 1 36.0105 4.02457 -3.9444 0.245234 1 
356 1 36.8061 1.40162 -4.56625 0.186157 1 
357 1 37.3365 2.29219 -1.66162 6.37207 5 
358 1 39.4365 1.86383 -3.59651 0.452611 1 
359 1 40.4569 0.211159 -1.30836 8.13074 5 
360 1 0.00251722 30.5656 -4.58572 0.0977192 1 
361 1 0.778284 27.9047 -5.37498 0.0107122 1 
362 1 1.1897 28.8267 -2.68619 0.16441 1 
363 1 1.97022 26.1402 -3.48178 0.243108 1 
364 1 3.4285 28.4172 -4.31956 0.0881295 1 
365 1 4.2309 25.775 -5.10271 0.0257484 1 
366 1 4.65909 26.6734 -2.33904 0.700679 1 
367 1 5.38988 24.0284 -3.19186 0.177056 1 
368 1 6.87073 26.2848 -4.08619 0.105965 1 
369 1 7.65227 23.6308 -4.88646 0.0177011 1 
370 1 8.10839 24.5444 -2.20525 0.272015 1 
371 1 8.88615 21.8967 -2.96089 0.0958125 1 
372 1 10.3169 24.1482 -3.95109 0.0288629 1 
373 1 11.1061 21.5129 -4.66858 0.0121331 1 
374 1 11.5917 22.4281 -1.96498 3.21723 5 
375 1 12.3152 19.7711 -2.72289 1.97407 5 
376 1 13.751 22.0403 -3.66723 0.210115 1 
377 1 14.5525 19.3982 -4.45114 0.0156826 1 
378 1 14.9123 20.3649 -1.75923 5.22954 5 
379 1 15.8105 17.6718 -2.4938 0.28921 1 
380 1 17.1687 19.9514 -3.50044 0.108743 1 
381 1 17.963 17.3332 -4.25858 0.0711296 1 
382 1 18.5576 18.2473 -1.49446 6.74652 5 
383 1 19.1012 15.6527 -2.3148 7.05182 5 
384 1 20.5965 17.9159 -3.36081 0.360302 1 
385 1 21.3801 15.2165 -4.05184 0.113146 1 
386 1 21.6436 16.3958 -1.39906 6.16943 5 
387 1 22.6163 13.5082 -2.16313 0.729939 1 
388 1 23.98 15.7894 -2.98412 0.899171 5 
389 1 24.8344 13.0819 -3.86667 0.0929087 1 
390 1 25.2671 14.067 -1.2066 1.38618 5 
391 1 25.9773 11.3577 -1.84086 0.570088 1 
392 1 27.4788 13.5446 -3.06496 0.598268 1 
393 1 28.2312 10.9296 -3.68397 0.0691842 1 
394 1 28.6613 11.8018 -1.03812 5.30135 5 
395 1 29.3414 9.17415 -1.82671 5.04855 5 
396 1 30.888 11.4399 -2.75844 0.0642527 1 
397 1 31.695 8.79312 -3.45306 0.0571981 1 
398 1 32.0086 9.66376 -0.833631 7.79318 5 
399 1 32.8835 7.10176 -1.43087 8.30367 5 
400 1 34.3518 9.39692 -2.43974 0.236224 1 
401 1 35.1338 6.73581 -3.2083 0.102749 1 
402 1 35.4529 7.77851 -0.582707 5.74108 5 
403 1 36.4365 5.03428 -1.42561 8.16922 5 
404 1 37.8257 7.27273 -2.15284 0.552729 1 
405 1 38.6602 4.61556 -2.937 0.259196 1 
406 1 39.1542 5.71665 -0.0977477 6.00945 5 
407 1 40.005 3.11458 -1.13594 11.1514 5 
408 1 41.3943 5.18999 -2.00008 6.45836 5 
409 1 42.1099 2.43599 -2.74993 0.415161 1 
410 1 42.7148 3.43655 -0.0993063 9.29119 5 
411 1 43.1595 0.784822 -0.846965 7.34919 5 
412 1 44.8216 2.97626 -1.78436 0.24215 1 
413 1 45.4874 0.233332 -2.51334 0.341729 1 
414 1 45.8317 1.15383 0.00222153 11.0115 5 
415 1 48.1483 0.807977 -1.48011 0.565625 1 
416 1 0.325926 31.5267 -1.71181 5.46588 5 
417 1 1.87196 33.685 -2.83543 0.351724 1 
418 1 2.60788 31.0608 -3.57072 0.0758282 1 
419 1 2.9947 32.0068 -0.802028 4.19937 5 
420 1 3.85144 29.3159 -1.53895 2.66707 5 
421 1 5.22538 31.5899 -2.69059 0.223906 1 
422 1 6.0599 28.8855 -3.41052 0.179191 1 
423 1 6.43185 29.9022 -0.899289 7.65522 5 
424 1 7.25546 27.2076 -1.21713 2.95728 5 
425 1 8.72924 29.4051 -2.53317 0.336364 1 
426 1 9.48463 26.8139 -3.18453 0.137088 1 
427 1 9.94135 27.7108 -0.421828 8.63398 5 
428 1 10.7501 25.1163 -1.36697 2.5152 5 
429 1 12.1285 27.3942 -2.28873 0.23797 1 
430 1 12.998 24.6438 -3.04204 0.525923 1 
431 1 13.4438 25.6674 -0.589993 8.74319 5 
432 1 14.1504 22.8521 -0.607979 9.86805 5 
433 1 15.6733 25.2679 -1.98608 0.408685 1 
434 1 16.3284 22.6381 -2.7586 0.400573 1 
435 1 16.9617 23.694 -0.145821 10.7301 5 
436 1 17.6412 21.0005 -0.94193 9.19176 5 
437 1 19.0388 23.202 -1.89243 6.69156 5 
438 1 19.8144 20.5513 -2.62099 1.5157 5 
439 1 19.4965 21.8784 0.768255 7.75044 5 
440 1 20.9975 19.2365 -0.461125 8.9011 5 
441 1 22.4938 21.0614 -1.85138 11.7365 5 
442 1 23.2646 18.4407 -2.32952 6.0609 5 
443 1 24.3405 17.1938 0.117592 10.278 5 
444 1 25.8963 18.959 -1.44406 5.91067 5 
445 1 26.6133 16.3038 -2.31274 1.83554 5 
446 1 27.9798 14.611 -0.697479 7.26625 5 
447 1 29.5553 16.8685 -1.0693 3.8204 5 
448 1 30.2443 14.158 -2.05069 0.507763 1 
449 1 31.1799 12.4288 -0.175768 8.88717 5 
450 1 32.9592 14.5468 -1.01833 7.50465 5 
451 1 33.5251 11.9612 -1.74753 1.24327 5 
452 1 34.4687 10.3807 0.428201 5.23328 5 
453 1 36.1696 12.4126 -0.942553 11.3733 5 
454 1 37.1038 9.86872 -1.34534 5.08176 5 
455 1 39.8425 10.2254 -0.52937 6.9028 5 
456 1 40.5247 7.71627 -1.47964 6.96637 5 
457 1 43.3797 8.228 -0.214949 7.17758 5 
458 1 43.9797 5.63532 -1.10823 7.37972 5 
459 1 45.6506 6.85614 0.623697 4.16977 5 
460 1 47.5455 3.40878 -0.780315 6.1128 5 
461 1 50.2498 4.35247 -0.01731 9.76112 5 
462 1 50.616 1.57009 -0.24977 7.37294 5 
463 1 0.378829 38.9684 -1.37818 5.58348 5 
464 1 1.0317 36.3933 -2.13903 0.64862 1 
465 1 2.34188 34.8135 -0.0821392 6.40411 5 
466 1 3.71685 36.8201 -1.44805 6.95313 5 
467 1 4.49089 34.2107 -1.88 5.53707 5 
468 1 5.88259 32.4969 -0.0761978 10.2588 5 
469 1 7.10798 34.7521 -1.07778 7.41753 5 
470 1 7.99875 32.1284 -1.78667 0.207543 1 
471 1 9.03649 30.3021 -0.00392973 10.8832 5 
472 1 10.7034 32.5827 -0.807656 6.09311 5 
473 1 11.4072 30.0132 -1.46507 0.666619 1 
474 1 14.0152 30.6883 -0.345421 5.27566 5 
475 1 14.8535 27.9647 -1.24367 0.466577 1 
476 1 17.4499 28.6359 -0.507941 11.2395 5 
477 1 18.3823 25.9136 -0.961756 4.95472 5 
478 1 20.9541 26.4133 0.219513 10.1285 5 
479 1 21.5482 23.7155 -0.917162 7.20521 5 
480 1 24.1231 24.1633 0.267101 9.80574 5 
481 1 25.0619 21.5259 -0.540538 4.50525 5 
482 1 28.7426 19.4638 -0.271778 11.3133 5 
483 1 31.7022 18.3318 0.107115 11.8125 5 
484 1 35.5347 15.0343 0.0867587 10.3437 5 
485 1 38.623 12.3755 0.574357 8.19232 5 
486 1 1.86368 41.5039 0.585127 7.55836 5 
487 1 3.06775 39.3564 -0.515551 6.83788 5 
488 1 6.57219 37.3633 -0.220985 7.10267 5 
489 1 8.84329 35.9818 0.597641 4.1406 5 
490 1 13.4849 33.4307 0.0352049 9.77422 5 
503 1 -0.168383 10.0253 -14.3728 4.41619e-05 1 
507 1 3.27762 7.89985 -14.1456 4.63237e-05 1 
508 1 4.07196 5.24785 -14.8781 3.7644e-05 1 
511 1 6.72106 5.77413 -13.9171 3.26464e-05 1 
512 1 7.51482 3.12243 -14.6501 3.4055e-05 1 
515 1 10.1616 3.64819 -13.6907 2.69534e-05 1 
516 1 10.9544 0.997105 -14.4246 2.48673e-05 1 
519 1 13.5994 1.52325 -13.4676 2.49871e-05 1 
521 1 0.49664 14.9337 -14.6231 3.38211e-05 1 
523 1 1.68952 13.2059 -12.6756 0.000126537 1 
524 1 2.48343 10.5527 -13.4122 6.78584e-05 1 
525 1 3.94011 12.8091 -14.3965 5.49753e-05 1 
527 1 5.13382 11.0798 -12.4479 0.000137226 1 
528 1 5.92737 8.42673 -13.1835 5.17834e-05 1 
529 1 7.38188 10.6838 -14.1715 3.74909e-05 1 
530 1 8.17561 8.03166 -14.9069 2.58186e-05 1 
531 1 8.57505 8.95363 -12.2212 0.00010287 1 
532 1 9.36842 6.30041 -12.957 3.56797e-05 1 
533 1 10.8219 8.55861 -13.9487 1.90955e-05 1 
534 1 11.6153 5.9065 -14.684 1.7019e-05 1 
535 1 12.0149 6.82669 -11.9991 4.70937e-05 1 
536 1 12.8075 4.17431 -12.7333 3.67243e-05 1 
537 1 14.2606 6.43407 -13.7285 2.67044e-05 1 
538 1 15.0532 3.78261 -14.4635 2.35517e-05 1 
539 1 15.4526 4.70191 -11.7776 9.79808e-05 1 
540 1 16.2437 2.05071 -12.5129 4.85506e-05 1 
541 1 17.6971 4.31172 -13.5111 3.17983e-05 1 
542 1 18.4896 1.66101 -14.247 2.84323e-05 1 
543 1 18.8865 2.58064 -11.5617 7.70149e-05 1 
544 1 10.9409 43.7101 -12.2985 8.60842e-05 1 
545 1 21.1335 2.19179 -13.2977 5.18975e-05 1 
546 1 22.3207 0.464193 -11.3514 0.00016799 1 
547 1 24.5726 0.0734416 -13.0873 9.03368e-05 1 
548 1 0.102464 18.5065 -11.2073 0.000141885 1 
549 1 0.896241 15.8568 -11.9401 9.23765e-05 1 
550 1 2.3534 18.1107 -12.9257 0.000109267 1 
551 1 3.14664 15.4604 -13.6606 7.14753e-05 1 
552 1 3.54721 16.3819 -10.9724 0.000283558 1 
553 1 4.34001 13.732 -11.71 0.000223217 1 
554 1 5.7943 15.9861 -12.6984 7.00247e-05 1 
555 1 6.58796 13.3356 -13.4351 5.26007e-05 1 
556 1 6.98743 14.2566 -10.7461 0.000142767 1 
557 1 7.78152 11.6059 -11.4847 0.000117002 1 
558 1 9.23404 13.8617 -12.4762 3.34168e-05 1 
559 1 10.0282 11.2106 -13.2128 2.07467e-05 1 
560 1 10.4274 12.1316 -10.5259 4.63131e-05 1 
561 1 11.2212 9.47994 -11.2631 5.89087e-05 1 
562 1 12.6736 11.7382 -12.2566 2.72226e-05 1 
563 1 13.4673 9.08629 -12.9929 2.7313e-05 1 
564 1 13.8676 10.0076 -10.3077 0.000106612 1 
565 1 14.6608 7.35407 -11.044 0.00012153 1 
566 1 16.1116 9.61633 -12.0393 6.62078e-05 1 
567 1 16.9046 6.96362 -12.7756 4.18713e-05 1 
568 1 17.3042 7.8861 -10.091 0.000213142 1 
569 1 18.0949 5.23222 -10.8264 0.000112408 1 
570 1 19.5472 7.49566 -11.826 8.86735e-05 1 
571 1 20.3402 4.84274 -12.5619 5.90957e-05 1 
572 1 20.735 5.76586 -9.88069 0.000317422 1 
573 1 21.5284 3.11305 -10.6149 0.000168724 1 
574 1 22.9839 5.37523 -11.6151 9.90288e-05 1 
575 1 23.7784 2.72372 -12.3504 8.6341e-05 1 
576 1 24.1715 3.64672 -9.67185 0.000441971 1 
577 1 24.9651 0.998038 -10.4065 0.000237894 1 
578 1 26.4257 3.25638 -11.4027 0.000150611 1 
579 1 27.2208 0.605484 -12.1399 0.000234548 1 
580 1 27.6115 1.5332 -9.46412 0.00118447 1 
581 1 29.8729 1.13645 -11.1874 0.000207695 1 
582 1 0.766718 23.4118 -11.4627 0.000235282 1 
583 1 1.56006 20.7606 -12.1932 0.000153264 1 
584 1 1.95978 21.6791 -9.50705 0.000823994 1 
585 1 2.75368 19.0306 -10.2369 0.00066414 1 
586 1 4.2073 21.2851 -11.2289 7.28478e-05 1 
587 1 5.00074 18.6355 -11.9631 5.99741e-05 1 
588 1 5.39913 19.5515 -9.27442 0.000453344 1 
589 1 6.19399 16.9049 -10.0076 0.000249577 1 
590 1 7.64631 19.1603 -11.0036 4.20213e-05 1 
591 1 8.43996 16.5114 -11.7395 3.69586e-05 1 
592 1 8.83853 17.4275 -9.05107 0.000240346 1 
593 1 9.63282 14.7809 -9.78751 9.95472e-05 1 
594 1 11.085 17.0382 -10.7833 5.53293e-05 1 
595 1 11.8793 14.3889 -11.5203 3.44064e-05 1 
596 1 12.2782 15.3075 -8.83278 0.000145297 1 
597 1 13.0737 12.6594 -9.57012 0.000115633 1 
598 1 14.5239 14.9184 -10.5671 9.93939e-05 1 
599 1 15.3183 12.2682 -11.3026 9.80555e-05 1 
600 1 15.7196 13.1917 -8.61365 0.000688061 1 
601 1 16.5122 10.5402 -9.35225 0.000444737 1 
602 1 17.9607 12.8018 -10.3532 0.000147183 1 
603 1 18.7539 10.1492 -11.0897 0.00012084 1 
604 1 19.1507 11.0781 -8.40449 0.000578446 1 
605 1 19.9432 8.42321 -9.14242 0.000574244 1 
606 1 21.3953 10.6839 -10.1447 0.000217239 1 
607 1 22.1892 8.02939 -10.8793 0.000187453 1 
608 1 22.5807 8.9622 -8.19749 0.00132992 1 
609 1 23.3756 6.30187 -8.93823 0.000528979 1 
610 1 24.8329 8.56092 -9.93557 0.000259659 1 
611 1 25.63 5.90738 -10.6682 8.86086e-05 1 
612 1 26.02 6.83427 -7.99124 0.000847876 1 
613 1 26.8182 4.1826 -8.72495 0.000583537 1 
614 1 28.2794 6.43596 -9.72089 0.000322041 1 
615 1 29.0766 3.78721 -10.451 0.000155053 1 
616 1 29.4692 4.71372 -7.77017 0.00142621 1 
617 1 30.2647 2.06616 -8.50977 0.000998575 1 
618 1 31.7298 4.31512 -9.49636 0.000378516 1 
619 1 32.5278 1.66463 -10.2287 0.000332998 1 
620 1 32.9196 2.59445 -7.5528 0.00148096 1 
621 1 24.9861 43.7177 -8.29035 0.00225539 1 
622 1 35.1854 2.18802 -9.26048 0.00105928 1 
623 1 36.3846 0.468169 -7.29078 0.0157338 1 
624 1 38.632 0.0579698 -9.01276 0.00172578 1 
625 1 -0.0270264 26.0658 -10.7307 0.000369316 1 
626 1 0.373859 26.9883 -8.05261 0.00191003 1 
627 1 1.16734 24.33 -8.78267 0.00134153 1 
628 1 2.62342 26.5894 -9.7568 0.000985974 1 
629 1 3.41539 23.9366 -10.4942 0.000242045 1 
630 1 3.81757 24.8549 -7.8037 0.00211615 1 
631 1 4.60415 22.2014 -8.54215 0.000672964 1 
632 1 6.06072 24.4606 -9.52611 0.000855535 1 
633 1 6.85249 21.8098 -10.2671 0.000108696 1 
634 1 7.2503 22.7245 -7.57842 0.00124103 1 
635 1 8.04538 20.0742 -8.31696 0.000515603 1 
636 1 9.49808 22.334 -9.3103 0.00014862 1 
637 1 10.2922 19.6863 -10.0464 0.000118259 1 
638 1 10.6971 20.5993 -7.35744 0.000942159 1 
639 1 11.4853 17.9546 -8.09465 0.000475559 1 
640 1 12.9367 20.2174 -9.09022 0.000831069 1 
641 1 13.7289 17.5681 -9.83098 0.000146621 1 
642 1 14.1299 18.4886 -7.14417 0.00171983 1 
643 1 14.9243 15.8387 -7.88084 0.00068918 1 
644 1 16.3709 18.1033 -8.88523 0.000291779 1 
645 1 17.1667 15.4526 -9.61869 0.00016215 1 
646 1 17.5649 16.3804 -6.93493 0.00143639 1 
647 1 18.3583 13.731 -7.66648 0.000691722 1 
648 1 19.8083 15.9912 -8.67452 0.000341196 1 
649 1 20.6025 13.3383 -9.40858 0.000265647 1 
650 1 20.997 14.2745 -6.72905 0.00235835 1 
651 1 21.7884 11.6163 -7.46557 0.00152474 1 
652 1 23.2455 13.8772 -8.46035 0.00237303 1 
653 1 24.0376 11.2174 -9.20399 0.000703913 1 
654 1 24.4273 12.1524 -6.53522 0.00679352 1 
655 1 25.2204 9.49088 -7.26141 0.00168864 1 
656 1 26.6857 11.7435 -8.27094 0.00367647 1 
657 1 27.4809 9.08768 -8.99502 0.000870654 1 
658 1 27.8656 10.0091 -6.33631 0.00615153 1 
659 1 28.6676 7.35708 -7.05262 0.00404892 1 
660 1 30.1351 9.6147 -8.04708 0.000897583 1 
661 1 30.9325 6.96374 -8.76974 0.000695775 1 
662 1 31.3198 7.88556 -6.10552 0.00526637 1 
663 1 32.1184 5.24144 -6.82259 0.00322497 1 
664 1 33.5891 7.49046 -7.80531 0.000669451 1 
665 1 34.3867 4.84038 -8.53205 0.000504311 1 
666 1 34.78 5.76457 -5.85632 0.0100563 1 
667 1 35.5864 3.11088 -6.58683 0.0112274 1 
668 1 37.0428 5.36212 -7.55529 0.00451658 1 
669 1 37.8415 2.70825 -8.28384 0.00181358 1 
670 1 38.2576 3.62485 -5.59326 0.0230346 1 
671 1 39.0347 0.972167 -6.31161 0.0109405 1 
672 1 40.4891 3.22502 -7.31797 0.0025296 1 
673 1 41.2751 0.574103 -8.04702 0.000981777 1 
674 1 41.6699 1.47382 -5.3559 0.0259542 1 
675 1 43.9182 1.09327 -7.09636 0.00188552 1 
676 1 1.03677 31.8903 -8.27845 0.00197479 1 
677 1 1.82864 29.2415 -9.01676 0.00121687 1 
678 1 2.23518 30.1545 -6.31358 0.00895521 1 
679 1 3.02709 27.5081 -7.05701 0.00888806 1 
680 1 4.47331 29.7569 -8.05165 0.000731238 1 
681 1 5.26797 27.1083 -8.78996 0.00063722 1 
682 1 5.66405 28.0167 -6.09391 0.00779099 1 
683 1 6.46424 25.3765 -6.82166 0.00960469 1 
684 1 7.91067 27.6281 -7.83514 0.000766891 1 
685 1 8.70403 24.9828 -8.57123 0.00050307 1 
686 1 9.10494 25.8919 -5.87977 0.00593658 1 
687 1 9.89897 23.2461 -6.6257 0.00132118 1 
688 1 11.3506 25.511 -7.61993 0.000799693 1 
689 1 12.1445 22.8611 -8.35859 0.00124816 1 
690 1 12.5517 23.771 -5.68622 0.0194583 1 
691 1 13.3434 21.1351 -6.38686 0.0100353 1 
692 1 14.7879 23.4017 -7.40477 0.00154337 1 
693 1 15.5749 20.7547 -8.14659 0.00109125 1 
694 1 15.9734 21.6765 -5.45574 0.00784764 1 
695 1 16.7697 19.0343 -6.2052 0.00375324 1 
696 1 18.2129 21.3007 -7.20931 0.00225399 1 
697 1 19.0117 18.6443 -7.94458 0.00108894 1 
698 1 19.3985 19.5955 -5.27226 0.0162598 1 
699 1 20.2013 16.9294 -5.99638 0.00552061 1 
700 1 21.6565 19.1782 -7.01434 0.00765746 1 
701 1 22.4527 16.5267 -7.72982 0.0012268 1 