ITEM: TIMESTEP
0
ITEM: NUMBER OF ATOMS
3436
ITEM: BOX BOUNDS xy xz yz pp pp ss
0 41.354834869 2.088628024
0 48.891744017 0
-100.2235839857839 106.1020964318434 0
ITEM: ATOMS id type x y z c_csym c_cna 
2652 1 39.1544 3.19728 -14.9857 0.000124034 1 
2654 1 37.9016 2.07551 -12.6773 0.000391746 1 
2655 1 39.1697 1.02141 -8.99832 0.00333886 1 
2748 1 35.3871 2.01126 -14.0517 0.000188782 1 
2749 1 34.1263 0.885268 -11.7354 0.000780811 1 
2750 1 36.6454 0.94918 -10.3748 0.00109415 1 
2841 1 29.12 0.77129 -14.4825 0.000171525 1 
2842 1 31.6197 0.82777 -13.1025 0.00044094 1 
3499 1 38.3165 6.92469 -13.6375 0.000160366 1 
3500 1 36.8526 4.46849 -13.8468 0.000168706 1 
3501 1 37.0615 5.80571 -11.3305 0.000620331 1 
3502 1 38.1133 3.41294 -10.1655 0.0013458 1 
3503 1 38.3151 4.75516 -7.65322 0.00365116 1 
3596 1 32.0417 5.67655 -14.0745 0.000175529 1 
3597 1 34.5486 5.73905 -12.7028 0.000260938 1 
3598 1 33.0831 3.2811 -12.9039 0.000391455 1 
3599 1 35.5953 3.34417 -11.5387 0.000604651 1 
3600 1 33.2875 4.61196 -10.3894 0.00115498 1 
3601 1 35.8039 4.68228 -9.03516 0.00228899 1 
3602 1 34.3332 2.2124 -9.23202 0.00239729 1 
3603 1 36.8579 2.28607 -7.87962 0.00403008 1 
3604 1 34.5484 3.54722 -6.75093 0.0104436 1 
3605 1 37.052 3.62888 -5.3804 0.0144766 1 
3606 1 35.6063 1.14407 -5.60157 0.0174955 1 
3607 1 38.1188 1.23497 -4.23509 0.0392411 1 
3608 1 35.7902 2.48637 -3.11947 0.152924 1 
3609 1 38.1784 2.57621 -1.74423 1.26665 5 
3701 1 30.5796 3.22277 -14.2778 0.000192461 1 
3702 1 28.2843 4.49645 -13.1288 0.000288832 1 
3703 1 30.7823 4.55231 -11.7496 0.000723019 1 
3704 1 29.322 2.10168 -11.9486 0.00068986 1 
3705 1 31.8199 2.15413 -10.5788 0.00173466 1 
3706 1 29.5215 3.42795 -9.41266 0.0028606 1 
3707 1 32.0239 3.47598 -8.06824 0.00615765 1 
3708 1 30.5542 1.02897 -8.23419 0.0107005 1 
3709 1 33.0686 1.07021 -6.91247 0.0135962 1 
3710 1 30.768 2.33315 -5.72001 0.0727072 1 
3711 1 33.3254 2.39527 -4.46641 0.0666663 1 
3712 1 32.209 1.20428 -2.16682 7.59251 5 
3713 1 34.7889 1.37507 -0.765718 6.64726 2 
3793 1 25.7853 4.43907 -14.5194 0.000119745 1 
3794 1 24.3266 1.98724 -14.7314 0.000153755 1 
3795 1 26.8268 2.04649 -13.3367 0.000275133 1 
3796 1 24.5365 3.32259 -12.197 0.000480081 1 
3797 1 27.0311 3.37863 -10.7957 0.00102117 1 
3798 1 25.5798 0.932182 -11.0086 0.00105011 1 
3799 1 28.067 0.98556 -9.60701 0.00223381 1 
3800 1 25.7838 2.27062 -8.45247 0.00399629 1 
3801 1 28.2636 2.31158 -7.05112 0.0118805 1 
3802 1 27.0139 1.22666 -4.65946 0.0348153 1 
3803 1 29.5367 1.28268 -3.20699 2.37055 5 
3870 1 19.5213 3.19728 -14.9857 0.000124034 1 
3871 1 22.0319 3.26068 -13.5971 0.00028914 1 
3872 1 20.5703 0.805237 -13.8113 0.000297836 1 
3873 1 23.0805 0.87015 -12.4161 0.000624413 1 
3874 1 20.7844 2.14242 -11.2903 0.00106669 1 
3875 1 23.2928 2.21004 -9.87924 0.00179189 1 
3876 1 22.051 1.09844 -7.58025 0.00530457 1 
3877 1 24.5412 1.17409 -6.12121 0.00985502 1 
3932 1 15.7539 2.01126 -14.0517 0.000188782 1 
3933 1 18.2685 2.07551 -12.6773 0.000391746 1 
3934 1 17.0123 0.94918 -10.3748 0.00109415 1 
3935 1 19.5366 1.02141 -8.99832 0.00333886 1 
3976 1 11.9866 0.82777 -13.1025 0.00044094 1 
3977 1 14.4932 0.885268 -11.7354 0.000780811 1 
4003 1 9.48692 0.77129 -14.4825 0.000171525 1 
4369 1 38.7332 11.7687 -14.6034 7.60811e-05 1 
4462 1 37.2695 9.31598 -14.8102 5.80626e-05 1 
4463 1 34.9675 10.5884 -13.6653 8.5218e-05 1 
4464 1 37.4766 10.6508 -12.2886 0.000212359 1 
4465 1 36.0131 8.19727 -12.4964 0.000221361 1 
4466 1 38.5242 8.26126 -11.1158 0.000463514 1 
4467 1 36.2174 9.53699 -9.97592 0.00084043 1 
4468 1 38.7251 9.59859 -8.5921 0.00171806 1 
4469 1 37.2653 7.14827 -8.81321 0.00203981 1 
4470 1 37.4503 8.50085 -6.28495 0.0116226 1 
4471 1 38.4758 6.10514 -5.13251 0.0249437 1 
4472 1 38.5011 7.49944 -2.6082 0.247658 1 
4566 1 33.5048 8.13265 -13.8704 0.000120913 1 
4567 1 31.2071 9.40377 -12.72 0.000260751 1 
4568 1 33.7098 9.4694 -11.3468 0.000328996 1 
4569 1 32.2462 7.00923 -11.5503 0.000546398 1 
4570 1 34.7548 7.07739 -10.188 0.000908174 1 
4571 1 32.4514 8.34622 -9.0287 0.00160109 1 
4572 1 34.9579 8.42403 -7.67278 0.00375096 1 
4573 1 33.4954 5.94952 -7.8877 0.00378487 1 
4574 1 36.0029 6.0286 -6.53153 0.00854295 1 
4575 1 33.7063 7.2943 -5.38825 0.0177849 1 
4576 1 36.1511 7.39025 -4.01065 0.0381097 1 
4577 1 34.7524 4.88953 -4.2606 0.0342242 1 
4578 1 37.1556 4.99199 -2.87006 0.15738 1 
4579 1 34.8898 6.26145 -1.69293 6.44298 2 
4580 1 36.0547 3.95758 -0.484781 6.29122 2 
4668 1 28.7066 9.34261 -14.103 0.000131997 1 
4669 1 27.2453 6.89013 -14.3102 0.000114232 1 
4670 1 29.745 6.94828 -12.9241 0.000298652 1 
4671 1 27.4544 8.22032 -11.7762 0.000527345 1 
4672 1 29.9513 8.27863 -10.3923 0.00103045 1 
4673 1 28.4888 5.82523 -10.5922 0.00109706 1 
4674 1 30.9852 5.87985 -9.22433 0.00276424 1 
4675 1 28.6977 7.14855 -8.05275 0.0038229 1 
4676 1 31.1958 7.20627 -6.70601 0.00948456 1 
4677 1 29.7281 4.74289 -6.87684 0.0128797 1 
4678 1 32.2519 4.8066 -5.58915 0.0184182 1 
4679 1 29.96 6.04113 -4.34794 0.109656 1 
4680 1 32.4812 6.13025 -3.12301 3.28518 5 
4681 1 31.048 3.66127 -3.31593 3.83344 5 
4682 1 33.5612 3.72701 -1.96463 6.92586 2 
4683 1 31.0555 3.12158 -0.693158 9.7645 5 
4758 1 22.4461 8.10425 -14.5639 7.76101e-05 1 
4759 1 24.9529 8.16301 -13.1714 0.000140692 1 
4760 1 23.4918 5.71295 -13.3827 0.000192001 1 
4761 1 25.9938 5.77133 -11.9837 0.000465098 1 
4762 1 23.7028 7.04512 -10.8513 0.000666645 1 
4763 1 26.2047 7.10055 -9.44073 0.00258468 1 
4764 1 24.7455 4.65799 -9.65371 0.00182811 1 
4765 1 27.2348 4.70591 -8.24556 0.00437935 1 
4766 1 24.957 5.99208 -7.09707 0.0128453 1 
4767 1 27.4564 6.01928 -5.69208 0.0157446 1 
4768 1 25.9819 3.61233 -5.8741 0.0244694 1 
4769 1 28.4721 3.60763 -4.49099 0.140602 1 
4770 1 26.1816 4.95624 -3.2951 1.87741 5 
4771 1 28.817 4.81441 -1.92882 9.87901 5 
4772 1 27.1348 2.62428 -2.05403 2.83678 5 
4834 1 20.984 5.65198 -14.7748 0.00011215 1 
4835 1 18.6834 6.92469 -13.6375 0.000160366 1 
4836 1 21.1943 6.98681 -12.2495 0.00028359 1 
4837 1 19.7326 4.5334 -12.4649 0.000414215 1 
4838 1 22.2432 4.59681 -11.0688 0.000832706 1 
4839 1 19.9408 5.87162 -9.94316 0.0010769 1 
4840 1 22.4501 5.93135 -8.53858 0.00397086 1 
4841 1 20.9944 3.48225 -8.76696 0.00318028 1 
4842 1 23.4986 3.55463 -7.32934 0.00680965 1 
4843 1 21.1818 4.82227 -6.24267 0.0143991 1 
4844 1 23.6799 4.91152 -4.76762 0.0480163 1 
4845 1 22.2325 2.45299 -5.03842 0.0129786 1 
4846 1 24.6956 2.54312 -3.54395 0.0583085 1 
4847 1 22.3373 3.82278 -2.50299 0.156865 1 
4848 1 23.3904 1.49685 -1.25166 0.36673 1 
4898 1 17.2195 4.46849 -13.8468 0.000168706 1 
4899 1 14.9155 5.73905 -12.7028 0.000260938 1 
4900 1 17.4284 5.80571 -11.3305 0.000620331 1 
4901 1 15.9622 3.34417 -11.5387 0.000604651 1 
4902 1 18.4802 3.41294 -10.1655 0.0013458 1 
4903 1 16.1708 4.68228 -9.03516 0.00228899 1 
4904 1 18.682 4.75516 -7.65322 0.00365116 1 
4905 1 17.2248 2.28607 -7.87962 0.00403008 1 
4906 1 19.7393 2.36524 -6.48715 0.0085654 1 
4907 1 17.4189 3.62888 -5.3804 0.0144766 1 
4908 1 19.8872 3.71133 -3.96677 0.0476803 1 
4909 1 18.4857 1.23497 -4.23509 0.0392411 1 
4910 1 20.9482 1.33289 -2.77307 0.0994344 1 
4911 1 18.5453 2.57621 -1.74423 1.26665 5 
4912 1 20.849 2.70279 -0.285421 6.05393 5 
4913 1 19.5427 0.15008 -0.550963 6.00727 5 
4949 1 12.4086 5.67655 -14.0745 0.000175529 1 
4950 1 10.9464 3.22277 -14.2778 0.000192461 1 
4951 1 13.45 3.2811 -12.9039 0.000391455 1 
4952 1 11.1492 4.55231 -11.7496 0.000723019 1 
4953 1 13.6544 4.61196 -10.3894 0.00115498 1 
4954 1 12.1868 2.15413 -10.5788 0.00173466 1 
4955 1 14.7001 2.2124 -9.23202 0.00239729 1 
4956 1 12.3908 3.47598 -8.06824 0.00615765 1 
4957 1 14.9153 3.54722 -6.75093 0.0104436 1 
4958 1 13.4355 1.07021 -6.91247 0.0135962 1 
4959 1 15.9732 1.14407 -5.60157 0.0174955 1 
4960 1 13.6923 2.39527 -4.46641 0.0666663 1 
4961 1 16.1571 2.48637 -3.11947 0.152924 1 
4962 1 15.1558 1.37507 -0.765718 6.64726 2 
4985 1 6.15218 4.43907 -14.5194 0.000119745 1 
4986 1 8.65123 4.49645 -13.1288 0.000288832 1 
4987 1 7.19374 2.04649 -13.3367 0.000275133 1 
4988 1 9.68887 2.10168 -11.9486 0.00068986 1 
4989 1 7.39802 3.37863 -10.7957 0.00102117 1 
4990 1 9.88844 3.42795 -9.41266 0.0028606 1 
4991 1 8.4339 0.98556 -9.60701 0.00223381 1 
4992 1 10.9211 1.02897 -8.23419 0.0107005 1 
4993 1 8.63045 2.31158 -7.05112 0.0118805 1 
4994 1 11.1349 2.33315 -5.72001 0.0727072 1 
4995 1 9.90358 1.28268 -3.20699 2.37055 5 
4996 1 12.5759 1.20428 -2.16682 7.59251 5 
5006 1 4.69351 1.98724 -14.7314 0.000153755 1 
5007 1 2.39875 3.26068 -13.5971 0.00028914 1 
5008 1 4.90343 3.32259 -12.197 0.000480081 1 
5009 1 3.44741 0.87015 -12.4161 0.000624413 1 
5010 1 5.94669 0.932182 -11.0086 0.00105011 1 
5011 1 3.65968 2.21004 -9.87924 0.00179189 1 
5012 1 6.15069 2.27062 -8.45247 0.00399629 1 
5013 1 4.90813 1.17409 -6.12121 0.00985502 1 
5014 1 7.38084 1.22666 -4.65946 0.0348153 1 
5015 1 0.937158 0.805237 -13.8113 0.000297836 1 
5016 1 1.15132 2.14242 -11.2903 0.00106669 1 
5017 1 2.41788 1.09844 -7.58025 0.00530457 1 
5413 1 37.8952 15.4931 -13.2575 0.000258721 1 
5414 1 38.9419 13.1004 -12.0837 0.00034884 1 
5415 1 39.1507 14.4285 -9.5725 0.00165916 1 
5508 1 35.3857 15.4337 -14.6322 0.000112993 1 
5509 1 33.924 12.9805 -14.8369 7.68743e-05 1 
5510 1 36.4303 13.0418 -13.4604 0.000146846 1 
5511 1 34.1278 14.3162 -12.3093 0.000347499 1 
5512 1 36.6339 14.3754 -10.9405 0.000863513 1 
5513 1 35.1714 11.9252 -11.1421 0.000325401 1 
5514 1 37.6803 11.985 -9.7693 0.00103839 1 
5515 1 35.3693 13.2651 -8.61858 0.00188812 1 
5516 1 37.877 13.3159 -7.25819 0.00753965 1 
5517 1 36.4126 10.883 -7.45073 0.00407925 1 
5518 1 38.9083 10.936 -6.06439 0.015865 1 
5519 1 36.5858 12.2432 -4.91256 0.027035 1 
5520 1 39.031 12.3045 -3.52953 0.108498 1 
5521 1 37.571 9.88272 -3.73725 0.050973 1 
5522 1 37.6043 11.3526 -1.08194 5.43634 5 
5615 1 31.6272 14.2531 -13.6881 0.000183715 1 
5616 1 30.1677 11.7974 -13.8958 0.000163529 1 
5617 1 32.668 11.8609 -12.5148 0.000216381 1 
5618 1 30.3755 13.1321 -11.3618 0.000725481 1 
5619 1 32.8709 13.2003 -9.98426 0.00066693 1 
5620 1 31.4131 10.7394 -10.1894 0.000779647 1 
5621 1 33.9131 10.8128 -8.82133 0.00132493 1 
5622 1 31.6215 12.0821 -7.65512 0.00214353 1 
5623 1 34.1117 12.1692 -6.28394 0.00736243 1 
5624 1 32.6624 9.69245 -6.50717 0.00593834 1 
5625 1 35.1463 9.7851 -5.14566 0.0197819 1 
5626 1 32.8658 11.0411 -3.97946 0.177766 1 
5627 1 35.2653 11.1744 -2.58804 2.00589 5 
5628 1 33.8711 8.64552 -2.8787 2.73595 5 
5629 1 36.2123 8.81523 -1.39507 5.95665 2 
5716 1 25.3733 13.0078 -14.1464 0.000111987 1 
5717 1 27.878 13.0684 -12.7538 0.00025239 1 
5718 1 26.4158 10.614 -12.9628 0.000167288 1 
5719 1 28.9164 10.674 -11.57 0.000626093 1 
5720 1 26.6328 11.9422 -10.4322 0.000856997 1 
5721 1 29.1291 12.0048 -9.02978 0.0033372 1 
5722 1 27.6686 9.54705 -9.2364 0.00309541 1 
5723 1 30.1626 9.60875 -7.85817 0.00380454 1 
5724 1 27.8957 10.8649 -6.68069 0.0224554 1 
5725 1 30.3922 10.9477 -5.32899 0.0199827 1 
5726 1 28.9267 8.45838 -5.51153 0.0236249 1 
5727 1 31.4349 8.52901 -4.20433 0.133786 1 
5728 1 29.2482 9.79261 -3.02247 5.33707 5 
5729 1 31.813 10.0239 -1.57128 7.68299 5 
5730 1 30.3885 7.40823 -1.8245 9.31086 5 
5804 1 23.9093 10.5554 -14.3548 7.45987e-05 1 
5805 1 21.6116 11.8275 -13.2196 0.000151641 1 
5806 1 24.1237 11.8843 -11.8298 0.000313819 1 
5807 1 22.6575 9.43567 -12.0376 0.000225451 1 
5808 1 25.1671 9.49144 -10.6407 0.000662292 1 
5809 1 22.871 10.7615 -9.51369 0.00114081 1 
5810 1 25.3926 10.8125 -8.1119 0.00491953 1 
5811 1 23.9172 8.37149 -8.32211 0.0053073 1 
5812 1 26.429 8.42251 -6.88381 0.0207251 1 
5813 1 24.1452 9.68165 -5.81203 0.0533574 1 
5814 1 26.6924 9.7218 -4.28714 0.22867 1 
5815 1 25.1846 7.32067 -4.52535 0.137311 1 
5816 1 27.7236 7.30847 -3.15281 4.80821 5 
5817 1 25.4283 8.69549 -1.93265 9.17693 5 
5818 1 28.0696 7.03836 -0.452597 6.356 5 
5878 1 19.1001 11.7687 -14.6034 7.60811e-05 1 
5879 1 17.6364 9.31598 -14.8102 5.80626e-05 1 
5880 1 20.1468 9.3773 -13.4274 0.000126881 1 
5881 1 17.8435 10.6508 -12.2886 0.000212359 1 
5882 1 20.3556 10.7092 -10.9051 0.000452214 1 
5883 1 18.8911 8.26126 -11.1158 0.000463514 1 
5884 1 21.4021 8.32013 -9.72291 0.000860337 1 
5885 1 19.092 9.59859 -8.5921 0.00171806 1 
5886 1 21.6024 9.64664 -7.19738 0.0064838 1 
5887 1 20.1345 7.21165 -7.41719 0.00430464 1 
5888 1 22.6453 7.25695 -6.0231 0.0401276 1 
5889 1 20.2891 8.5501 -4.87896 0.0636984 1 
5890 1 22.81 8.56708 -3.57317 0.448061 1 
5891 1 21.3061 6.1547 -3.74027 0.163451 1 
5892 1 23.768 6.34106 -2.22773 2.58426 5 
5893 1 21.219 7.56815 -1.35909 6.93131 5 
5941 1 15.3344 10.5884 -13.6653 8.5218e-05 1 
5942 1 13.8717 8.13265 -13.8704 0.000120913 1 
5943 1 16.38 8.19727 -12.4964 0.000221361 1 
5944 1 14.0767 9.4694 -11.3468 0.000328996 1 
5945 1 16.5843 9.53699 -9.97592 0.00084043 1 
5946 1 15.1217 7.07739 -10.188 0.000908174 1 
5947 1 17.6322 7.14827 -8.81321 0.00203981 1 
5948 1 15.3248 8.42403 -7.67278 0.00375096 1 
5949 1 17.8172 8.50085 -6.28495 0.0116226 1 
5950 1 16.3698 6.0286 -6.53153 0.00854295 1 
5951 1 18.8427 6.10514 -5.13251 0.0249437 1 
5952 1 16.518 7.39025 -4.01065 0.0381097 1 
5953 1 18.868 7.49944 -2.6082 0.247658 1 
5954 1 17.5225 4.99199 -2.87006 0.15738 1 
5955 1 19.8611 5.09433 -1.47338 1.24914 1 
5990 1 9.07354 9.34261 -14.103 0.000131997 1 
5991 1 11.574 9.40377 -12.72 0.000260751 1 
5992 1 10.1119 6.94828 -12.9241 0.000298652 1 
5993 1 12.6131 7.00923 -11.5503 0.000546398 1 
5994 1 10.3182 8.27863 -10.3923 0.00103045 1 
5995 1 12.8183 8.34622 -9.0287 0.00160109 1 
5996 1 11.3521 5.87985 -9.22433 0.00276424 1 
5997 1 13.8623 5.94952 -7.8877 0.00378487 1 
5998 1 11.5627 7.20627 -6.70601 0.00948456 1 
5999 1 14.0732 7.2943 -5.38825 0.0177849 1 
6000 1 12.6188 4.8066 -5.58915 0.0184182 1 
6001 1 15.1193 4.88953 -4.2606 0.0342242 1 
6002 1 12.8481 6.13025 -3.12301 3.28518 5 
6003 1 15.2567 6.26145 -1.69293 6.44298 2 
6004 1 13.928 3.72701 -1.96463 6.92586 2 
6005 1 16.4216 3.95758 -0.484781 6.29122 2 
6027 1 7.61216 6.89013 -14.3102 0.000114232 1 
6028 1 5.31979 8.16301 -13.1714 0.000140692 1 
6029 1 7.82133 8.22032 -11.7762 0.000527345 1 
6030 1 6.36065 5.77133 -11.9837 0.000465099 1 
6031 1 8.85566 5.82523 -10.5922 0.00109706 1 
6032 1 6.57163 7.10055 -9.44073 0.00258468 1 
6033 1 9.0646 7.14855 -8.05275 0.0038229 1 
6034 1 7.60174 4.70591 -8.24556 0.00437935 1 
6035 1 10.095 4.74289 -6.87684 0.0128797 1 
6036 1 7.82331 6.01928 -5.69208 0.0157446 1 
6037 1 10.3269 6.04113 -4.34794 0.109656 1 
6038 1 8.83897 3.60763 -4.49099 0.140602 1 
6039 1 11.4149 3.66127 -3.31593 3.83344 5 
6040 1 9.18391 4.81441 -1.92882 9.87901 5 
6041 1 11.4224 3.12158 -0.693158 9.7645 5 
6049 1 2.81304 8.10425 -14.5639 7.76101e-05 1 
6050 1 1.35085 5.65198 -14.7748 0.00011215 1 
6051 1 3.85868 5.71295 -13.3827 0.000192001 1 
6052 1 1.56118 6.98681 -12.2495 0.00028359 1 
6053 1 4.06972 7.04512 -10.8513 0.000666645 1 
6054 1 2.61005 4.59681 -11.0688 0.000832706 1 
6055 1 5.11243 4.65799 -9.65371 0.00182811 1 
6056 1 2.81704 5.93135 -8.53858 0.00397086 1 
6057 1 5.3239 5.99208 -7.09707 0.0128453 1 
6058 1 3.86551 3.55463 -7.32934 0.00680965 1 
6059 1 6.34876 3.61233 -5.8741 0.0244694 1 
6060 1 4.04683 4.91152 -4.76762 0.0480163 1 
6061 1 6.54853 4.95624 -3.2951 1.87741 5 
6062 1 5.0625 2.54312 -3.54395 0.0583085 1 
6063 1 7.50174 2.62428 -2.05403 2.83678 5 
6064 1 39.3657 4.5334 -12.4649 0.000414215 1 
6065 1 0.307717 5.87162 -9.94316 0.0010769 1 
6066 1 1.3613 3.48225 -8.76696 0.00318028 1 
6067 1 1.54868 4.82227 -6.24267 0.0143991 1 
6068 1 0.10623 2.36524 -6.48715 0.0085654 1 
6069 1 2.59935 2.45299 -5.03842 0.0129786 1 
6070 1 0.254128 3.71133 -3.96677 0.0476803 1 
6071 1 2.70418 3.82278 -2.50299 0.156865 1 
6072 1 1.31508 1.33289 -2.77307 0.0994344 1 
6073 1 3.75729 1.49685 -1.25166 0.36673 1 
6074 1 1.21585 2.70279 -0.285421 6.05393 5 
6075 1 39.1758 0.15008 -0.550963 6.00727 5 
6476 1 38.3156 20.339 -14.2263 0.000168218 1 
6477 1 36.8494 17.8859 -14.429 0.000151819 1 
6478 1 37.0559 19.2168 -11.9111 0.000615083 1 
6479 1 38.1033 16.823 -10.7452 0.00132485 1 
6480 1 38.3155 18.1482 -8.25181 0.00650831 1 
6573 1 32.0438 19.0989 -14.6579 0.000159459 1 
6574 1 34.5459 19.1581 -13.2796 0.000338651 1 
6575 1 33.0856 16.7069 -13.482 0.000252415 1 
6576 1 35.589 16.7667 -12.1085 0.000611309 1 
6577 1 33.2852 18.0413 -10.9494 0.00110627 1 
6578 1 35.7884 18.0978 -9.58881 0.00379157 1 
6579 1 34.3269 15.6554 -9.77742 0.00223689 1 
6580 1 36.8328 15.7071 -8.42884 0.00577092 1 
6581 1 34.5202 17.0032 -7.2325 0.0200048 1 
6582 1 37.033 17.0285 -5.93931 0.0412659 1 
6583 1 35.5583 14.6099 -6.09447 0.0111093 1 
6584 1 38.0651 14.645 -4.7764 0.069068 1 
6585 1 35.7398 15.9605 -3.56039 0.224919 1 
6586 1 38.2819 15.9927 -2.36627 6.9954 5 
6587 1 36.7092 13.6565 -2.34039 5.09518 5 
6679 1 30.5859 16.646 -14.8653 0.000117165 1 
6680 1 28.2944 17.9193 -13.7224 0.000222715 1 
6681 1 30.791 17.9813 -12.3298 0.000536945 1 
6682 1 29.3365 15.5255 -12.542 0.000316161 1 
6683 1 31.8311 15.5898 -11.1528 0.000678978 1 
6684 1 29.545 16.8624 -10.001 0.000990708 1 
6685 1 32.0301 16.9296 -8.60687 0.0020568 1 
6686 1 30.582 14.4704 -8.81867 0.00303921 1 
6687 1 33.0696 14.5474 -7.44669 0.00217333 1 
6688 1 30.7833 15.8127 -6.25558 0.0127836 1 
6689 1 33.2674 15.9041 -4.90048 0.0137487 1 
6690 1 31.8312 13.4359 -5.1104 0.0146465 1 
6691 1 34.2921 13.5381 -3.72721 0.169782 1 
6692 1 32.059 14.8314 -2.55379 4.14194 5 
6693 1 34.4577 15.1556 -0.99145 7.88595 5 
6694 1 33.165 12.6261 -1.27287 6.64045 5 
6776 1 26.8358 15.4631 -13.9357 0.000176027 1 
6777 1 24.5448 16.7344 -12.8031 0.000393499 1 
6778 1 27.051 16.7973 -11.4042 0.000744448 1 
6779 1 25.5902 14.338 -11.6208 0.000529686 1 
6780 1 28.0931 14.4006 -10.2192 0.00109935 1 
6781 1 25.8139 15.6669 -9.09554 0.00239514 1 
6782 1 28.3104 15.7343 -7.67513 0.00364546 1 
6783 1 26.8599 13.2652 -7.89788 0.00441222 1 
6784 1 29.3466 13.3373 -6.47499 0.0167682 1 
6785 1 27.0985 14.5848 -5.35588 0.0160236 1 
6786 1 29.5653 14.6675 -3.88673 0.0784993 1 
6787 1 28.1534 12.179 -4.09748 0.135817 1 
6788 1 30.6715 12.3125 -2.78089 4.42826 5 
6789 1 28.4126 13.4607 -1.4728 6.158 5 
6790 1 29.4252 9.67064 -0.287043 5.07454 5 
6858 1 22.032 16.6738 -14.1917 0.000185261 1 
6859 1 20.5653 14.2205 -14.3978 0.00012302 1 
6860 1 23.0785 14.2789 -13.0132 0.000237224 1 
6861 1 20.7784 15.5502 -11.8819 0.000557229 1 
6862 1 23.2984 15.6067 -10.4969 0.00101754 1 
6863 1 21.8254 13.155 -10.7013 0.000642815 1 
6864 1 24.3454 13.2077 -9.30974 0.00165381 1 
6865 1 22.045 14.4746 -8.19484 0.00270017 1 
6866 1 24.5819 14.5245 -6.80167 0.00927394 1 
6867 1 23.0917 12.0742 -7.0031 0.00834094 1 
6868 1 25.6438 12.1135 -5.58542 0.0355682 1 
6869 1 23.3314 13.3802 -4.53987 0.060811 1 
6870 1 25.9044 13.407 -3.07904 0.132514 1 
6871 1 24.3659 10.9654 -3.35349 0.358168 1 
6872 1 27.0575 10.9889 -1.66008 7.20112 5 
6873 1 24.6367 12.1686 -0.948473 11.4921 5 
6928 1 15.7526 15.4337 -14.6322 0.000112993 1 
6929 1 18.2621 15.4931 -13.2575 0.000258721 1 
6930 1 16.7972 13.0418 -13.4604 0.000146846 1 
6931 1 19.3088 13.1004 -12.0837 0.00034884 1 
6932 1 17.0008 14.3754 -10.9405 0.000863513 1 
6933 1 19.5176 14.4285 -9.5725 0.00165916 1 
6934 1 18.0472 11.985 -9.7693 0.00103839 1 
6935 1 20.5625 12.0353 -8.38807 0.00249975 1 
6936 1 18.2439 13.3159 -7.25819 0.00753965 1 
6937 1 20.7666 13.3455 -5.88733 0.0269077 1 
6938 1 19.2752 10.936 -6.06439 0.015865 1 
6939 1 21.7877 10.952 -4.6893 0.0927812 1 
6940 1 19.3979 12.3045 -3.52953 0.108498 1 
6941 1 21.9267 12.3019 -2.30838 0.450425 1 
6942 1 20.3174 9.96372 -2.34843 0.357323 1 
6943 1 22.8365 9.92242 -1.24616 8.62112 5 
6985 1 14.2909 12.9805 -14.8369 7.68743e-05 1 
6986 1 11.9941 14.2531 -13.6881 0.000183715 1 
6987 1 14.4947 14.3162 -12.3093 0.000347499 1 
6988 1 13.0349 11.8609 -12.5148 0.000216381 1 
6989 1 15.5383 11.9252 -11.1421 0.000325401 1 
6990 1 13.2378 13.2003 -9.98426 0.00066693 1 
6991 1 15.7362 13.2651 -8.61858 0.00188812 1 
6992 1 14.28 10.8128 -8.82133 0.00132493 1 
6993 1 16.7795 10.883 -7.45073 0.00407925 1 
6994 1 14.4786 12.1692 -6.28394 0.00736243 1 
6995 1 16.9527 12.2432 -4.91256 0.027035 1 
6996 1 15.5132 9.7851 -5.14566 0.0197819 1 
6997 1 17.9379 9.88272 -3.73725 0.050973 1 
6998 1 15.6322 11.1744 -2.58804 2.00589 5 
6999 1 17.9712 11.3526 -1.08194 5.43634 5 
7000 1 16.5792 8.81523 -1.39507 5.95665 2 
7030 1 10.5346 11.7974 -13.8958 0.000163529 1 
7031 1 8.2449 13.0684 -12.7538 0.00025239 1 
7032 1 10.7424 13.1321 -11.3618 0.000725481 1 
7033 1 9.28328 10.674 -11.57 0.000626093 1 
7034 1 11.78 10.7394 -10.1894 0.000779647 1 
7035 1 9.49603 12.0048 -9.02978 0.0033372 1 
7036 1 11.9884 12.0821 -7.65512 0.00214353 1 
7037 1 10.5295 9.60875 -7.85817 0.00380454 1 
7038 1 13.0293 9.69245 -6.50717 0.00593834 1 
7039 1 10.7591 10.9477 -5.32899 0.0199827 1 
7040 1 13.2327 11.0411 -3.97946 0.177766 1 
7041 1 11.8018 8.52901 -4.20433 0.133786 1 
7042 1 14.238 8.64552 -2.8787 2.73595 5 
7043 1 12.1799 10.0239 -1.57128 7.68299 5 
7059 1 5.7402 13.0078 -14.1464 0.000111987 1 
7060 1 4.27623 10.5554 -14.3548 7.45987e-05 1 
7061 1 6.7827 10.614 -12.9628 0.000167288 1 
7062 1 4.49062 11.8843 -11.8298 0.000313819 1 
7063 1 6.99974 11.9422 -10.4322 0.000856997 1 
7064 1 5.53403 9.49144 -10.6407 0.000662292 1 
7065 1 8.03545 9.54705 -9.2364 0.00309541 1 
7066 1 5.75953 10.8125 -8.1119 0.00491953 1 
7067 1 8.26264 10.8649 -6.68069 0.0224554 1 
7068 1 6.79589 8.42251 -6.88381 0.0207251 1 
7069 1 9.29356 8.45838 -5.51153 0.023625 1 
7070 1 7.0593 9.7218 -4.28714 0.228671 1 
7071 1 9.61515 9.79261 -3.02247 5.33707 5 
7072 1 8.09048 7.30847 -3.15281 4.80821 5 
7073 1 10.7554 7.40823 -1.8245 9.31086 5 
7074 1 8.43646 7.03836 -0.452597 6.356 5 
7078 1 1.97849 11.8275 -13.2196 0.000151641 1 
7079 1 0.51365 9.3773 -13.4274 0.000126881 1 
7080 1 3.02435 9.43567 -12.0376 0.000225451 1 
7081 1 0.722499 10.7092 -10.9051 0.000452214 1 
7082 1 3.23788 10.7615 -9.51369 0.00114081 1 
7083 1 1.76896 8.32013 -9.72291 0.000860337 1 
7084 1 4.28409 8.37149 -8.32211 0.0053073 1 
7085 1 1.96926 9.64664 -7.19738 0.0064838 1 
7086 1 4.51205 9.68165 -5.81203 0.0533574 1 
7087 1 3.01224 7.25695 -6.0231 0.0401276 1 
7088 1 5.55151 7.32067 -4.52535 0.137311 1 
7089 1 3.17692 8.56708 -3.57317 0.44806 1 
7090 1 5.79521 8.69549 -1.93265 9.17693 5 
7091 1 4.13487 6.34106 -2.22773 2.58426 5 
7092 1 0.501387 7.21165 -7.41719 0.00430464 1 
7093 1 0.656016 8.5501 -4.87896 0.0636984 1 
7094 1 1.67302 6.1547 -3.74027 0.163451 1 
7095 1 1.58589 7.56815 -1.35909 6.93131 5 
7096 1 0.227981 5.09433 -1.47338 1.24914 1 
7485 1 34.9661 24.0024 -14.2528 0.000224225 1 
7486 1 37.4782 24.0634 -12.8818 0.000343225 1 
7487 1 36.0103 21.6092 -13.0807 0.000375835 1 
7488 1 38.5271 21.6704 -11.7131 0.000578503 1 
7489 1 36.216 22.9369 -10.568 0.00124714 1 
7490 1 38.7422 23.0007 -9.21063 0.0024617 1 
7491 1 37.2636 20.5448 -9.40347 0.00193543 1 
7492 1 37.4733 21.8612 -6.91065 0.0146307 1 
7493 1 38.5471 19.4754 -5.79782 0.0414331 1 
7494 1 38.7955 20.7966 -3.3598 0.146405 1 
7587 1 33.5034 21.5504 -14.4539 0.000206219 1 
7588 1 31.2049 22.8236 -13.3034 0.000394367 1 
7589 1 33.7046 22.8795 -11.928 0.000873864 1 
7590 1 32.2451 20.4314 -12.1249 0.000746348 1 
7591 1 34.7462 20.4879 -10.7557 0.00138059 1 
7592 1 32.4402 21.7611 -9.58822 0.00364659 1 
7593 1 34.9447 21.8113 -8.24045 0.00480643 1 
7594 1 33.4786 19.3745 -8.41286 0.00480435 1 
7595 1 35.9893 19.4225 -7.08063 0.021161 1 
7596 1 33.6698 20.7006 -5.87615 0.0221764 1 
7597 1 36.1838 20.7207 -4.57934 0.398704 1 
7598 1 34.7116 18.3599 -4.65963 0.265269 1 
7599 1 37.2598 18.3718 -3.52617 0.606115 1 
7600 1 34.8391 19.8269 -1.77666 8.8777 5 
7601 1 37.6504 19.5575 -1.15293 5.51763 5 
7602 1 36.0009 17.4182 -1.16721 9.17578 5 
7690 1 28.7073 22.7659 -14.6907 0.000150811 1 
7691 1 27.2506 20.3127 -14.9025 0.000152505 1 
7692 1 29.7496 20.3733 -13.5099 0.000305683 1 
7693 1 27.4603 21.6488 -12.3665 0.000542317 1 
7694 1 29.9518 21.7083 -10.9675 0.00133245 1 
7695 1 28.5037 19.2559 -11.1834 0.000713063 1 
7696 1 30.9913 19.3187 -9.78344 0.00258044 1 
7697 1 28.7089 20.5956 -8.63053 0.00144565 1 
7698 1 31.1846 20.66 -7.21661 0.015834 1 
7699 1 29.7481 18.2032 -7.44568 0.00221038 1 
7700 1 32.2212 18.2734 -6.04652 0.00611162 1 
7701 1 29.9401 19.5493 -4.87032 0.00855533 1 
7702 1 32.4196 19.6413 -3.46448 0.169271 1 
7703 1 30.9746 17.1713 -3.67719 0.0496025 1 
7704 1 33.4536 17.3325 -2.35934 3.88724 5 
7705 1 31.1394 18.4957 -1.10403 2.76114 5 
7781 1 24.959 21.5866 -13.7663 0.000339175 1 
7782 1 23.4975 19.1298 -13.9815 0.00028133 1 
7783 1 26.0058 19.1927 -12.5861 0.000520964 1 
7784 1 23.716 20.4655 -11.4589 0.00111441 1 
7785 1 26.221 20.5315 -10.0486 0.00165539 1 
7786 1 24.7658 18.0681 -10.2794 0.00162993 1 
7787 1 27.2668 18.1349 -8.86341 0.00258906 1 
7788 1 24.9891 19.407 -7.75002 0.00550536 1 
7789 1 27.4749 19.4795 -6.30316 0.00906702 1 
7790 1 26.0409 16.997 -6.56611 0.00755432 1 
7791 1 28.5216 17.0704 -5.11386 0.0101013 1 
7792 1 26.2445 18.3323 -4.02622 0.0142612 1 
7793 1 28.6885 18.412 -2.53991 0.0292225 1 
7794 1 27.3106 15.9118 -2.80563 0.034148 1 
7795 1 29.7707 15.9796 -1.31496 5.20578 5 
7858 1 18.6825 20.339 -14.2263 0.000168218 1 
7859 1 21.1994 20.4011 -12.8495 0.000495116 1 
7860 1 19.7303 17.9454 -13.0555 0.000360388 1 
7861 1 22.2497 18.0054 -11.676 0.000805322 1 
7862 1 19.9458 19.276 -10.5483 0.00159799 1 
7863 1 22.4744 19.3387 -9.16683 0.00315126 1 
7864 1 20.9976 16.8768 -9.37847 0.00220941 1 
7865 1 23.527 16.9331 -7.9894 0.00427053 1 
7866 1 21.2271 18.2024 -6.8945 0.00772367 1 
7867 1 23.7573 18.2651 -5.4881 0.0151942 1 
7868 1 22.2742 15.7899 -5.71548 0.0109669 1 
7869 1 24.8222 15.8407 -4.30139 0.0275495 1 
7870 1 22.5224 17.1073 -3.2623 0.0671451 1 
7871 1 25.0191 17.1609 -1.78394 0.149509 1 
7872 1 23.596 14.6701 -2.10653 0.207322 1 
7922 1 17.2163 17.8859 -14.429 0.000151819 1 
7923 1 14.9128 19.1581 -13.2796 0.000338651 1 
7924 1 17.4228 19.2168 -11.9111 0.000615083 1 
7925 1 15.9559 16.7667 -12.1085 0.000611309 1 
7926 1 18.4702 16.823 -10.7452 0.00132485 1 
7927 1 16.1553 18.0978 -9.58881 0.00379157 1 
7928 1 18.6824 18.1482 -8.25181 0.00650831 1 
7929 1 17.1997 15.7071 -8.42884 0.00577092 1 
7930 1 19.7308 15.7497 -7.08234 0.00639658 1 
7931 1 17.3999 17.0285 -5.93931 0.0412659 1 
7932 1 19.9541 17.0705 -4.63003 0.0202368 1 
7933 1 18.432 14.645 -4.7764 0.069068 1 
7934 1 20.9734 14.6561 -3.44467 0.180853 1 
7935 1 18.6488 15.9927 -2.36627 6.9954 5 
7936 1 21.2881 15.946 -1.06403 0.905096 1 
7937 1 19.4958 13.7457 -0.970233 7.10919 5 
7973 1 12.4107 19.0989 -14.6579 0.000159459 1 
7974 1 10.9528 16.646 -14.8653 0.000117165 1 
7975 1 13.4525 16.7069 -13.482 0.000252415 1 
7976 1 11.1579 17.9813 -12.3298 0.000536945 1 
7977 1 13.6521 18.0413 -10.9494 0.00110627 1 
7978 1 12.198 15.5898 -11.1528 0.000678978 1 
7979 1 14.6938 15.6554 -9.77742 0.00223689 1 
7980 1 12.397 16.9296 -8.60687 0.0020568 1 
7981 1 14.887 17.0032 -7.2325 0.0200048 1 
7982 1 13.4365 14.5474 -7.44669 0.00217333 1 
7983 1 15.9252 14.6099 -6.09447 0.0111093 1 
7984 1 13.6343 15.9041 -4.90048 0.0137487 1 
7985 1 16.1067 15.9605 -3.56039 0.224919 1 
7986 1 14.659 13.5381 -3.72721 0.169782 1 
7987 1 17.0761 13.6565 -2.34039 5.09518 5 
7988 1 14.8245 15.1556 -0.99145 7.88595 5 
8012 1 8.66134 17.9193 -13.7224 0.000222715 1 
8013 1 7.2027 15.4631 -13.9357 0.000176027 1 
8014 1 9.70341 15.5255 -12.542 0.000316161 1 
8015 1 7.41786 16.7973 -11.4042 0.000744448 1 
8016 1 9.9119 16.8624 -10.001 0.000990708 1 
8017 1 8.45995 14.4006 -10.2192 0.00109935 1 
8018 1 10.9489 14.4704 -8.81867 0.00303921 1 
8019 1 8.67726 15.7343 -7.67513 0.00364546 1 
8020 1 11.1502 15.8127 -6.25558 0.0127836 1 
8021 1 9.71347 13.3373 -6.47499 0.0167682 1 
8022 1 12.1981 13.4359 -5.1104 0.0146465 1 
8023 1 9.93219 14.6675 -3.88673 0.0784993 1 
8024 1 12.4259 14.8314 -2.55379 4.14194 5 
8025 1 11.0384 12.3125 -2.78089 4.42826 5 
8026 1 13.5319 12.6261 -1.27287 6.64045 5 
8037 1 2.39885 16.6738 -14.1917 0.000185261 1 
8038 1 4.91168 16.7344 -12.8031 0.000393499 1 
8039 1 3.44544 14.2789 -13.0132 0.000237224 1 
8040 1 5.95707 14.338 -11.6208 0.000529686 1 
8041 1 3.66528 15.6067 -10.4969 0.00101754 1 
8042 1 6.18077 15.6669 -9.09554 0.00239514 1 
8043 1 4.71232 13.2077 -9.30974 0.00165381 1 
8044 1 7.22679 13.2652 -7.89788 0.00441222 1 
8045 1 4.9488 14.5245 -6.80167 0.00927394 1 
8046 1 7.46538 14.5848 -5.35588 0.0160236 1 
8047 1 6.01071 12.1135 -5.58542 0.0355682 1 
8048 1 8.52031 12.179 -4.09748 0.135817 1 
8049 1 6.27134 13.407 -3.07904 0.132513 1 
8050 1 8.77955 13.4607 -1.4728 6.158 5 
8051 1 7.42442 10.9889 -1.66008 7.20112 5 
8052 1 9.79211 9.67064 -0.287043 5.07454 5 
8053 1 0.932204 14.2205 -14.3978 0.00012302 1 
8054 1 1.14531 15.5502 -11.8819 0.000557229 1 
8055 1 2.19228 13.155 -10.7013 0.000642815 1 
8056 1 2.41194 14.4746 -8.19484 0.00270017 1 
8057 1 0.929399 12.0353 -8.38807 0.00249975 1 
8058 1 3.45857 12.0742 -7.0031 0.00834095 1 
8059 1 1.1335 13.3455 -5.88733 0.0269077 1 
8060 1 3.69826 13.3802 -4.53987 0.060811 1 
8061 1 2.15465 10.952 -4.6893 0.0927811 1 
8062 1 4.73276 10.9654 -3.35349 0.358168 1 
8063 1 2.2936 12.3019 -2.30838 0.450425 1 
8064 1 5.0036 12.1686 -0.948473 11.4921 5 
8065 1 3.20343 9.92242 -1.24616 8.62112 5 
8066 1 0.684297 9.96372 -2.34843 0.357323 1 
8301 1 37.8969 28.9144 -13.8468 0.000168706 1 
8302 1 38.9459 26.5214 -12.6773 0.000391746 1 
8303 1 39.1577 27.8588 -10.1655 0.0013458 1 
8387 1 36.4314 26.4571 -14.0517 0.000188782 1 
8388 1 34.1274 27.727 -12.9039 0.000391455 1 
8389 1 36.6396 27.79 -11.5387 0.000604651 1 
8390 1 35.1706 25.3311 -11.7354 0.000780811 1 
8391 1 37.6897 25.3951 -10.3748 0.00109415 1 
8392 1 35.3776 26.6583 -9.23202 0.00239729 1 
8393 1 37.9023 26.7319 -7.87962 0.00403008 1 
8394 1 36.4278 24.2602 -8.07284 0.0036501 1 
8395 1 38.9637 24.3382 -6.72697 0.0118878 1 
8396 1 36.6506 25.5899 -5.60157 0.0174955 1 
8397 1 39.1631 25.6808 -4.23509 0.0392411 1 
8398 1 37.7201 23.1966 -4.47746 0.0635179 1 
8399 1 37.9074 24.5118 -2.02811 1.48328 5 
8400 1 38.9275 22.0593 -0.849244 5.72918 5 