ITEM: TIMESTEP
0
ITEM: NUMBER OF ATOMS
7712
ITEM: BOX BOUNDS xy xz yz pp pp ss
-241.694074437 83.982587481 -241.694074437
0 51.243322807 0
-135.5993537562702 146.3128069952771 0
ITEM: ATOMS id type x y z c_csym c_cna 
1 1 -0.41285 1.22053 -7.44655 0.0205307 1 
2 1 -1.01607 1.36133 -3.40572 5.96498 5 
5 1 -0.816769 5.37435 -13.8465 0.000663308 1 
6 1 -1.39125 5.49763 -9.8448 0.00310178 1 
7 1 -0.221473 6.9682 -7.64547 0.00732549 1 
8 1 -0.316355 4.08891 -7.55782 0.014941 1 
9 1 -1.98708 5.63441 -5.89122 0.0235655 1 
10 1 -0.81489 7.08168 -3.62538 6.16158 5 
11 1 -0.966441 4.22372 -3.64306 2.76487 5 
12 1 -2.62691 5.6809 -2.05056 4.24671 5 
28 1 -0.913266 2.51242 -13.7677 0.000742017 1 
29 1 -3.74598 2.59662 -14.222 0.00064821 1 
30 1 -2.56731 4.04374 -12.0357 0.00145616 1 
31 1 -2.6624 1.18159 -11.9548 0.0015734 1 
32 1 -1.48629 2.62953 -9.75712 0.00474596 1 
33 1 -4.3261 2.71057 -10.2426 0.00194603 1 
34 1 -3.15496 4.16304 -8.06714 0.00310805 1 
35 1 -3.24567 1.29025 -7.96924 0.0111605 1 
36 1 -2.08562 2.74747 -5.80601 0.0510675 1 
37 1 -4.92788 2.81143 -6.30167 0.0286181 1 
38 1 -3.77305 4.25291 -4.16841 0.2238 1 
39 1 -3.82424 1.42211 -3.96616 5.7426 5 
40 1 -2.40906 2.89842 -1.64804 6.84919 5 
41 1 -5.58247 2.90464 -2.5153 0.523546 1 
42 1 -4.45235 4.24762 -0.44995 7.72515 5 
43 1 -4.37896 1.33825 -0.540962 7.07246 5 
53 1 -5.50343 1.26555 -12.4206 0.000907423 1 
55 1 -6.09668 1.3767 -8.46474 0.00455102 1 
58 1 -6.74933 1.48347 -4.61191 0.117966 1 
61 1 -7.38155 1.6843 -0.688873 0.739337 5 
86 1 -0.719336 8.23755 -13.9239 0.000583569 1 
87 1 -3.55497 8.32147 -14.3753 0.000520158 1 
89 1 -2.47137 6.90798 -12.1159 0.00116244 1 
90 1 -1.29266 8.36385 -9.92488 0.00265924 1 
91 1 -4.13497 8.44196 -10.4011 0.00159071 1 
93 1 -3.05462 7.03758 -8.14219 0.00581369 1 
94 1 -1.87582 8.49978 -5.92288 0.0538537 1 
95 1 -4.7383 8.57456 -6.46553 0.0165683 1 
97 1 -3.68752 7.15058 -4.26121 0.086289 1 
98 1 -2.58332 8.72529 -2.22384 9.23971 5 
99 1 -5.3331 8.71043 -2.53587 0.834438 5 
100 1 -4.22248 7.18915 -0.535395 4.11025 5 
136 1 -3.65076 5.45888 -14.2991 0.000590925 1 
137 1 -6.49425 5.54584 -14.7464 0.000355696 1 
138 1 -5.31505 6.99243 -12.5753 0.000660459 1 
139 1 -5.40968 4.12881 -12.4985 0.000786422 1 
140 1 -4.23169 5.57837 -10.3241 0.00149348 1 
141 1 -7.08343 5.6641 -10.7845 0.00101253 1 
142 1 -5.90867 7.11464 -8.62445 0.00272682 1 
143 1 -6.0045 4.24524 -8.54779 0.00287282 1 
144 1 -4.83892 5.6938 -6.39386 0.00839482 1 
145 1 -7.6955 5.79368 -6.85536 0.00721653 1 
146 1 -6.51938 7.26204 -4.70654 0.0273817 1 
147 1 -6.6456 4.36941 -4.67428 0.0345064 1 
148 1 -5.45254 5.79471 -2.57679 0.0983053 1 
149 1 -8.29786 5.9348 -2.96582 0.09322 1 
150 1 -7.01919 7.34221 -0.801884 0.486542 1 
151 1 -7.24252 4.49994 -0.880367 1.88176 5 
205 1 -6.58849 2.68328 -14.6717 0.000402564 1 
207 1 -8.25961 4.21716 -12.9458 0.000504384 1 
209 1 -7.1774 2.79852 -10.7086 0.00118584 1 
210 1 -10.0322 2.88816 -11.149 0.00105305 1 
211 1 -8.86317 4.33733 -9.00101 0.00299309 1 
213 1 -7.79943 2.91774 -6.79571 0.0145122 1 
214 1 -10.6459 3.00453 -7.20669 0.00290944 1 
215 1 -9.48721 4.45906 -5.073 0.00878712 1 
217 1 -8.41553 3.01459 -2.91476 0.0446782 1 
218 1 -11.2598 3.11665 -3.28642 0.035432 1 
219 1 -10.0525 4.56906 -1.25655 1.20572 5 
248 1 -84.3863 18.5002 -3.96301 5.71814 5 
251 1 -84.9289 18.4129 -0.549611 7.12986 5 
375 1 -6.39952 8.40825 -14.8201 0.000313372 1 
377 1 -8.0705 9.94225 -13.0893 0.000425358 1 
378 1 -8.1653 7.08044 -13.0184 0.000450611 1 
379 1 -6.98817 8.52741 -10.8571 0.000969046 1 
380 1 -9.84039 8.61584 -11.2856 0.000653599 1 
381 1 -8.66418 10.0622 -9.12837 0.00128027 1 
382 1 -8.76339 7.20298 -9.06558 0.00191814 1 
383 1 -7.58886 8.65699 -6.91006 0.00445315 1 
384 1 -10.4354 8.73594 -7.32236 0.0028967 1 
385 1 -9.25534 10.179 -5.15282 0.00636237 1 
386 1 -9.36764 7.33387 -5.12051 0.0162219 1 
387 1 -8.186 8.77437 -2.9403 0.0510833 1 
388 1 -10.9975 8.83865 -3.30388 0.0231743 1 
389 1 -9.8 10.2986 -1.13322 0.116485 1 
390 1 -9.85691 7.40383 -1.079 0.350476 1 
464 1 -11.0155 7.16978 -13.4426 0.000351956 1 
465 1 -11.1103 4.30676 -13.3739 0.000402055 1 
466 1 -9.93707 5.75338 -11.2188 0.000881088 1 
467 1 -12.7858 5.84172 -11.6304 0.000520627 1 
468 1 -11.6124 7.28819 -9.47746 0.00108314 1 
469 1 -11.7127 4.42433 -9.41437 0.0012488 1 
470 1 -10.5433 5.87502 -7.26816 0.00307939 1 
471 1 -13.3839 5.95827 -7.65908 0.00204576 1 
472 1 -12.2014 7.40575 -5.50104 0.00894472 1 
473 1 -12.3225 4.54605 -5.45726 0.00884862 1 
474 1 -11.1435 6.01071 -3.31322 0.0909441 1 
475 1 -13.9633 6.07025 -3.65299 0.0170186 1 
476 1 -12.701 7.46401 -1.43351 0.204976 1 
477 1 -12.8859 4.65369 -1.46087 0.30104 1 
561 1 -13.9575 4.39631 -13.7856 0.000276546 1 
563 1 -12.8811 2.97775 -11.5634 0.000554264 1 
565 1 -14.5555 4.51218 -9.81073 0.0007451 1 
567 1 -13.486 3.09396 -7.59773 0.00198048 1 
569 1 -15.1522 4.62844 -5.82228 0.00401856 1 
571 1 -14.0944 3.22638 -3.62269 0.0328043 1 
573 1 -15.7413 4.75992 -1.79839 0.0668048 1 
605 1 -84.2157 22.5383 -14.2969 0.000670512 1 
606 1 -84.7954 22.6552 -10.3211 0.0015336 1 
607 1 -85.401 22.7692 -6.3906 0.00835953 1 
608 1 -84.2491 24.2252 -4.25834 0.0855287 1 
609 1 -84.3342 21.3279 -4.16376 0.240432 1 
610 1 -86.0148 22.8714 -2.57693 0.10241 1 
611 1 -84.7825 24.265 -0.535903 4.09527 5 
612 1 -85.0166 21.3232 -0.455084 7.78713 5 
624 1 -84.3128 19.6771 -14.2212 0.000731612 1 
625 1 -87.1552 19.7638 -14.6707 0.000438131 1 
626 1 -85.9748 21.2076 -12.4963 0.00086938 1 
627 1 -86.0703 18.3454 -12.4189 0.00105758 1 
628 1 -84.8909 19.7875 -10.2393 0.00220899 1 
629 1 -87.7429 19.8771 -10.7063 0.00127817 1 
630 1 -86.5686 21.3224 -8.5453 0.00291211 1 
631 1 -86.6613 18.454 -8.46141 0.00490939 1 
632 1 -85.4919 19.8876 -6.29936 0.028652 1 
633 1 -88.3646 19.9952 -6.7943 0.0150066 1 
634 1 -87.2098 21.4465 -4.674 0.0368504 1 
635 1 -87.3139 18.5599 -4.61098 0.121057 1 
636 1 -86.1475 19.9808 -2.51647 0.568056 1 
637 1 -88.9803 20.0921 -2.91505 0.0445025 1 
638 1 -87.8064 21.5772 -0.88154 1.87475 5 
639 1 -87.9426 18.7617 -0.690687 0.744618 5 
828 1 -10.9201 10.0314 -13.5102 0.000294722 1 
832 1 -11.5126 10.1479 -9.53903 0.000689943 1 
836 1 -12.0851 10.2512 -5.55243 0.00401332 1 
840 1 -12.618 10.3469 -1.54254 0.105785 1 
934 1 -13.7664 10.1205 -13.9179 0.000213436 1 
935 1 -13.8622 7.25891 -13.8521 0.00025232 1 
936 1 -12.6887 8.70391 -11.6951 0.000407297 1 
937 1 -15.5326 8.79246 -12.0931 0.000246195 1 
938 1 -14.3571 10.2355 -9.93588 0.000309269 1 
939 1 -14.456 7.37458 -9.8737 0.000528777 1 
940 1 -13.2758 8.8164 -7.71763 0.00118135 1 
941 1 -16.116 8.90374 -8.10617 0.000532773 1 
942 1 -14.9231 10.3343 -5.95165 0.00396083 1 
943 1 -15.0327 7.47989 -5.8832 0.00366087 1 
944 1 -13.8165 8.89669 -3.70393 0.0266669 1 
945 1 -16.6636 8.99559 -4.12534 0.0163997 1 
946 1 -15.4535 10.4137 -2.01084 0.0683052 1 
947 1 -15.5797 7.57024 -1.86243 0.0815648 1 
1060 1 -16.7047 7.34787 -14.2522 0.000185812 1 
1061 1 -16.8003 4.48567 -14.1869 0.000205857 1 
1062 1 -15.6294 5.93043 -12.0292 0.000322258 1 
1063 1 -18.4688 6.01933 -12.421 0.000209462 1 
1064 1 -17.2958 7.46287 -10.2623 0.00026119 1 
1065 1 -17.3933 4.60044 -10.1989 0.00039207 1 
1066 1 -16.2191 6.04264 -8.04252 0.000869032 1 
1067 1 -19.053 6.13066 -8.42447 0.00047077 1 
1068 1 -17.8686 7.56927 -6.27085 0.00221798 1 
1069 1 -17.974 4.70759 -6.19636 0.00279351 1 
1070 1 -16.7951 6.14917 -4.03095 0.00967138 1 
1071 1 -19.6119 6.23076 -4.42808 0.0168753 1 
1072 1 -18.4279 7.69494 -2.28543 0.126808 1 
1073 1 -18.5707 4.84924 -2.13996 0.128244 1 
1074 1 -20.3739 6.51453 -0.460277 6.63545 5 
1175 1 -19.639 4.57461 -14.5824 0.000160003 1 
1179 1 -20.2284 4.68954 -10.5835 0.000218792 1 
1183 1 -20.7978 4.79205 -6.57955 0.00262831 1 
1187 1 -21.3479 4.89836 -2.57691 0.117552 1 
1242 1 -84.1183 25.4005 -14.3726 0.000563114 1 
1243 1 -86.963 25.4875 -14.8183 0.000329582 1 
1245 1 -85.8787 24.0708 -12.573 0.000692609 1 
1246 1 -84.6972 25.5188 -10.3981 0.00161248 1 
1247 1 -87.5508 25.6053 -10.8553 0.000987325 1 
1249 1 -86.4713 24.1914 -8.62214 0.00275244 1 
1250 1 -85.2999 25.6504 -6.46351 0.016653 1 
1251 1 -88.151 25.7343 -6.9091 0.00456566 1 
1253 1 -87.0817 24.3389 -4.70569 0.0281815 1 
1254 1 -85.8949 25.7871 -2.535 0.836137 5 
1255 1 -88.7479 25.8517 -2.93986 0.0514428 1 
1257 1 -87.5805 24.4192 -0.801488 0.483773 1 
1289 1 -87.0592 22.6255 -14.7448 0.000382796 1 
1291 1 -88.7293 24.1593 -13.0168 0.000462481 1 
1292 1 -88.8252 21.2966 -12.9442 0.000528057 1 
1293 1 -87.6476 22.7422 -10.7824 0.00104121 1 
1294 1 -90.502 22.8321 -11.2174 0.000898602 1 
1295 1 -89.3268 24.2809 -9.06434 0.00197557 1 
1296 1 -89.4282 21.4156 -8.99947 0.00308847 1 
1297 1 -88.2591 22.8712 -6.85422 0.00761687 1 
1298 1 -91.1078 22.9531 -7.26732 0.00312765 1 
1299 1 -89.9307 24.4115 -5.12009 0.0164354 1 
1300 1 -90.052 21.537 -5.07243 0.00901047 1 
1301 1 -88.8611 23.0125 -2.96581 0.0940879 1 
1302 1 -91.7074 23.0888 -3.31304 0.0911515 1 
1303 1 -90.4191 24.4814 -1.0789 0.350677 1 
1304 1 -90.6163 21.6468 -1.25653 1.19907 5 
1358 1 -91.6766 21.3864 -13.3725 0.000406663 1 
1360 1 -90.5987 19.9675 -11.1473 0.00107468 1 
1361 1 -93.4486 20.0573 -11.5617 0.00054781 1 
1362 1 -92.2788 21.5031 -9.41305 0.00125539 1 
1364 1 -91.2121 20.083 -7.20536 0.00297723 1 
1365 1 -94.0535 20.173 -7.59643 0.00196895 1 
1366 1 -92.8882 21.6245 -5.45663 0.00891115 1 
1368 1 -91.8252 20.195 -3.28602 0.03534 1 
1369 1 -94.6613 20.3058 -3.62247 0.0329123 1 
1370 1 -93.4506 21.733 -1.46098 0.300564 1 
1680 1 -16.6085 10.2094 -14.3173 0.000162262 1 
1681 1 -15.4363 11.6534 -12.1573 0.000204112 1 
1682 1 -18.2759 11.7424 -12.5488 0.000174278 1 
1684 1 -17.1985 10.325 -10.3252 0.000229562 1 
1685 1 -16.0204 11.7665 -8.16883 0.000727544 1 
1686 1 -18.862 11.8591 -8.55043 0.000787889 1 
1688 1 -17.7718 10.4371 -6.33912 0.00275541 1 
1689 1 -16.5794 11.8719 -4.21273 0.0130235 1 
1690 1 -19.4371 11.9861 -4.56053 0.0192072 1 
1692 1 -18.2853 10.5672 -2.41067 0.0925321 1 
1693 1 -17.1045 11.9366 -0.260262 0.839702 5 
1694 1 -19.853 12.1449 -0.558603 2.22073 5 
1815 1 -19.4465 10.2978 -14.712 0.000140522 1 
1816 1 -19.543 7.43643 -14.6472 0.000149283 1 
1817 1 -18.3723 8.88123 -12.4847 0.00018148 1 
1818 1 -21.2082 8.96965 -12.8734 0.000178208 1 
1819 1 -20.0365 10.4141 -10.71 0.000262783 1 
1820 1 -20.1329 7.55212 -10.6469 0.000224487 1 
1821 1 -18.9561 8.99527 -8.48893 0.000434537 1 
1822 1 -21.7934 9.08566 -8.86622 0.000579575 1 
1823 1 -20.6152 10.5318 -6.70818 0.00310326 1 
1824 1 -20.7067 7.6637 -6.6491 0.0013711 1 
1825 1 -19.5094 9.1118 -4.5101 0.0112838 1 
1826 1 -22.3625 9.20206 -4.8638 0.0238264 1 
1827 1 -21.1461 10.6381 -2.70955 0.132065 1 
1828 1 -21.2445 7.77153 -2.72457 0.320943 1 
1829 1 -19.9201 9.34036 -0.60873 4.89908 5 
1830 1 -22.768 9.06987 -0.859533 6.95643 5 
1953 1 -21.3046 6.10819 -12.8095 0.000175118 1 
1954 1 -24.1368 6.19657 -13.1976 0.000168941 1 
1955 1 -22.9672 7.64158 -11.0296 0.000275823 1 
1957 1 -21.8877 6.22183 -8.80418 0.000449542 1 
1958 1 -24.7231 6.31529 -9.18192 0.000924962 1 
1959 1 -23.5477 7.7594 -7.0208 0.00332587 1 
1961 1 -22.4489 6.32405 -4.8223 0.0133472 1 
1962 1 -25.3002 6.44053 -5.18127 0.017978 1 
1963 1 -24.0964 7.8502 -3.01988 0.0940324 1 
1965 1 -23.1082 6.2913 -0.8827 2.10374 5 
1966 1 -25.8407 6.53423 -1.18307 1.24772 5 
2130 1 -168.503 35.841 -0.689412 0.74844 5 
2184 1 -88.633 27.0208 -13.0879 0.000436217 1 
2188 1 -89.2261 27.14 -9.12745 0.00130096 1 
2192 1 -89.8168 27.2563 -5.15264 0.00641899 1 
2196 1 -90.3614 27.3762 -1.1329 0.118257 1 
2246 1 -91.4831 27.1101 -13.5093 0.000300867 1 
2247 1 -91.5801 24.2488 -13.4415 0.000357705 1 
2248 1 -90.4036 25.6942 -11.2845 0.000667944 1 
2249 1 -93.2525 25.7824 -11.6943 0.000414254 1 
2250 1 -92.075 27.2258 -9.53855 0.000701393 1 
2251 1 -92.1767 24.3665 -9.47657 0.00109586 1 
2252 1 -90.9982 25.8137 -7.32184 0.00293424 1 
2253 1 -93.8392 25.8944 -7.71721 0.00118237 1 
2254 1 -92.6471 27.3288 -5.55239 0.00398703 1 
2255 1 -92.7652 24.4838 -5.50072 0.00898097 1 
2256 1 -91.5597 25.9162 -3.30375 0.0233048 1 
2257 1 -94.3794 25.9746 -3.70389 0.0267372 1 
2258 1 -93.1795 27.4242 -1.54286 0.106766 1 
2259 1 -93.2642 24.542 -1.43346 0.205765 1 
2329 1 -94.4273 24.338 -13.8511 0.000254913 1 
2330 1 -94.5243 21.4759 -13.7841 0.000275749 1 
2331 1 -93.3514 22.9206 -11.6292 0.000523431 1 
2332 1 -96.1958 23.0093 -12.0279 0.000325306 1 
2333 1 -95.021 24.453 -9.87285 0.000536865 1 
2334 1 -95.1226 21.5911 -9.80935 0.000742462 1 
2335 1 -93.9493 23.0367 -7.65826 0.00205629 1 
2336 1 -96.7856 23.1212 -8.04151 0.000870845 1 
2337 1 -95.5974 24.5582 -5.88277 0.00364971 1 
2338 1 -95.7193 21.7073 -5.82159 0.00401969 1 
2339 1 -94.5282 23.1488 -3.65292 0.0170082 1 
2340 1 -97.3612 23.2279 -4.03056 0.00959976 1 
2341 1 -96.1438 24.6489 -1.86249 0.0814429 1 
2342 1 -96.3074 21.8395 -1.79868 0.0660961 1 
2432 1 -97.3677 21.5652 -14.1853 0.000205583 1 
2436 1 -97.9614 21.6793 -10.1972 0.000391547 1 
2440 1 -98.5425 21.7865 -6.19517 0.00275982 1 
2444 1 -99.1381 21.9279 -2.13914 0.128564 1 
2830 1 -21.1114 11.8306 -12.9375 0.000179062 1 
2831 1 -23.9423 11.9181 -13.3261 0.000173298 1 
2833 1 -22.8704 10.502 -11.0924 0.000293166 1 
2834 1 -21.6973 11.9461 -8.92597 0.000712401 1 
2835 1 -24.5273 12.0309 -9.30264 0.000562453 1 
2837 1 -23.4497 10.6173 -7.07003 0.00306768 1 
2838 1 -22.2682 12.0568 -4.89002 0.014087 1 
2839 1 -25.0845 12.1249 -5.24643 0.0146357 1 
2841 1 -23.9705 10.6799 -2.98298 0.139674 1 
2842 1 -22.6554 12.0759 -0.842322 5.52991 5 
2843 1 -25.5446 12.1598 -1.22077 5.86427 5 
2964 1 -24.0398 9.05751 -13.2617 0.000178458 1 
2965 1 -26.8666 9.14443 -13.6528 0.000169065 1 
2966 1 -25.6994 10.5893 -11.4766 0.000257391 1 
2967 1 -25.7973 7.73015 -11.4133 0.000292115 1 
2968 1 -24.6274 9.17472 -9.24105 0.000873975 1 
2969 1 -27.4546 9.26129 -9.62046 0.000581183 1 
2970 1 -26.2799 10.7012 -7.43847 0.00247243 1 
2971 1 -26.3861 7.85332 -7.38157 0.00412321 1 
2972 1 -25.1987 9.29398 -5.20139 0.013944 1 
2973 1 -28.0437 9.38419 -5.55979 0.0134527 1 
2974 1 -26.8449 10.8051 -3.3724 0.0782207 1 
2975 1 -26.9531 7.97266 -3.35373 0.0402161 1 
2976 1 -25.7464 9.31546 -1.1787 5.41471 5 
2977 1 -28.693 9.57173 -1.54777 5.81854 5 
3098 1 -26.9646 6.28362 -13.5879 0.000175296 1 
3099 1 -29.7875 6.36914 -13.9833 0.000180381 1 
3100 1 -28.6219 7.81661 -11.8016 0.000265327 1 
3102 1 -27.5527 6.40477 -9.56012 0.000866739 1 
3103 1 -30.3744 6.48924 -9.94487 0.000643562 1 
3104 1 -29.2087 7.9338 -7.75376 0.00214637 1 
3106 1 -28.142 6.5276 -5.5123 0.0208789 1 
3107 1 -30.9518 6.59734 -5.866 0.0145153 1 
3108 1 -29.7964 8.06162 -3.67356 0.101621 1 
3110 1 -28.6156 6.64613 -1.48433 5.30742 5 
3278 1 -168.204 39.8221 -10.7811 0.00110942 1 
3279 1 -168.815 39.9511 -6.85351 0.00766779 1 
3280 1 -169.418 40.0925 -2.96466 0.0929936 1 
3281 1 -168.142 41.5 -0.799712 0.477368 1 
3282 1 -168.366 38.6569 -0.878808 1.85617 5 
3292 1 -169.383 38.3761 -12.943 0.00055474 1 
3294 1 -168.3 36.9565 -10.7043 0.0013192 1 
3295 1 -171.156 37.0464 -11.147 0.00109695 1 
3296 1 -169.984 38.4949 -8.99904 0.00313718 1 
3298 1 -168.921 37.0745 -6.79325 0.0150324 1 
3299 1 -171.768 37.1616 -7.20579 0.00297917 1 
3300 1 -170.608 38.6162 -5.07255 0.00876601 1 
3302 1 -169.538 37.1716 -2.91411 0.0438942 1 
3303 1 -172.382 37.2734 -3.28656 0.0346577 1 
3304 1 -171.174 38.7268 -1.25553 1.18717 5 
3482 1 -94.3299 27.1991 -13.9174 0.000217221 1 
3484 1 -95.9988 28.7315 -12.1572 0.00020698 1 
3486 1 -94.92 27.3134 -9.93558 0.000313401 1 
3488 1 -96.5821 28.844 -8.16885 0.000710056 1 
3490 1 -95.4856 27.4121 -5.95142 0.00388898 1 
3492 1 -97.1405 28.9498 -4.21206 0.0128275 1 
3494 1 -96.0157 27.4916 -2.01089 0.068789 1 
3495 1 -97.6652 29.0152 -0.2594 0.848739 5 
3585 1 -97.1725 27.288 -14.3168 0.000163915 1 
3586 1 -97.2703 24.4269 -14.2512 0.00018762 1 
3587 1 -96.097 25.8709 -12.0924 0.000250923 1 
3588 1 -98.9373 25.9596 -12.484 0.000182763 1 
3589 1 -97.7619 27.4029 -10.3249 0.000228329 1 
3590 1 -97.8614 24.5412 -10.2613 0.000266293 1 
3591 1 -96.6801 25.9818 -8.10566 0.0005284 1 
3592 1 -99.5207 26.0732 -8.48831 0.000427044 1 
3593 1 -98.3346 27.5149 -6.33869 0.0027152 1 
3594 1 -98.434 24.6475 -6.27009 0.00219636 1 
3595 1 -97.2273 26.0739 -4.12502 0.0162739 1 
3596 1 -100.073 26.1899 -4.50934 0.0110883 1 
3597 1 -98.8476 27.6454 -2.40987 0.0917625 1 
3598 1 -98.9925 24.7734 -2.28505 0.125862 1 
3599 1 -100.484 26.4185 -0.608708 4.93683 5 
3709 1 -100.109 24.5155 -14.646 0.000150343 1 
3710 1 -100.207 21.6541 -14.5806 0.000161156 1 
3711 1 -99.0358 23.0982 -12.4195 0.000211878 1 
3712 1 -101.872 23.187 -12.8078 0.00017487 1 
3713 1 -100.699 24.6303 -10.6458 0.000220907 1 
3714 1 -100.797 21.7681 -10.5814 0.000215206 1 
3715 1 -99.6204 23.209 -8.42315 0.000464201 1 
3716 1 -102.456 23.2999 -8.80263 0.000422648 1 
3717 1 -101.273 24.7417 -6.64812 0.00133774 1 
3718 1 -101.367 21.8705 -6.57765 0.00256421 1 
3719 1 -100.179 23.3091 -4.42682 0.0166951 1 
3720 1 -103.016 23.4023 -4.82069 0.0129598 1 
3721 1 -101.809 24.8501 -2.72319 0.315811 1 
3722 1 -101.917 21.9766 -2.57476 0.11565 1 
3723 1 -100.939 23.5921 -0.4589 6.62475 5 
3724 1 -103.673 23.3726 -0.881205 2.09737 5 
4120 1 -25.601 13.4493 -11.5415 0.000212648 1 
4124 1 -26.1738 13.5508 -7.51039 0.00287346 1 
4128 1 -26.7182 13.6366 -3.49839 0.038809 1 
4251 1 -26.7683 12.0051 -13.7182 0.000159892 1 
4252 1 -29.5894 12.0914 -14.1171 0.000147844 1 
4253 1 -28.4248 13.5377 -11.9335 0.000254675 1 
4254 1 -28.5232 10.6764 -11.867 0.000222569 1 
4255 1 -27.3539 12.1184 -9.68715 0.000476186 1 
4256 1 -30.1775 12.2087 -10.081 0.000485596 1 
4257 1 -29.006 13.6494 -7.90531 0.00208868 1 
4258 1 -29.1055 10.7875 -7.82737 0.00185278 1 
4259 1 -27.9269 12.218 -5.64608 0.0145484 1 
4260 1 -30.7544 12.3212 -6.05745 0.0126424 1 
4261 1 -29.5737 13.7765 -3.90889 0.1076 1 
4262 1 -29.7191 10.943 -3.75718 0.110319 1 
4263 1 -28.4895 12.408 -1.65117 5.39658 5 
4264 1 -31.424 12.6638 -2.09058 7.18983 5 
4385 1 -29.6884 9.23023 -14.0501 0.000157315 1 
4386 1 -32.5059 9.3152 -14.4568 0.00015683 1 
4387 1 -31.342 10.7628 -12.267 0.000238842 1 
4388 1 -31.4409 7.9017 -12.1989 0.000262691 1 
4389 1 -30.2756 9.34672 -10.0109 0.000472317 1 
4390 1 -33.0919 9.43366 -10.4143 0.000664503 1 
4391 1 -31.9274 10.8777 -8.22759 0.00150465 1 
4392 1 -32.0221 8.01382 -8.14634 0.00239427 1 
4393 1 -30.8546 9.45952 -5.95409 0.0094157 1 
4394 1 -33.6705 9.54001 -6.37905 0.010417 1 
4395 1 -32.5163 11.0014 -4.22063 0.122463 1 
4396 1 -32.5947 8.1235 -4.08096 0.0860691 1 
4397 1 -31.5668 9.70626 -1.93407 5.661 5 
4398 1 -34.3365 9.59178 -2.39686 2.2981 5 
4521 1 -34.2555 7.98661 -12.6095 0.000286577 1 
4525 1 -34.8388 8.1037 -8.56099 0.00348681 1 
4529 1 -35.4278 8.22255 -4.55667 0.0582352 1 
4724 1 -169.192 44.1016 -13.0884 0.000450319 1 
4725 1 -169.287 41.2393 -13.0164 0.000483998 1 
4726 1 -168.109 42.6856 -10.8551 0.00103776 1 
4727 1 -170.961 42.7745 -11.2856 0.000679694 1 
4728 1 -169.784 44.221 -9.12875 0.00131839 1 
4729 1 -169.883 41.3609 -9.06464 0.00202404 1 
4730 1 -168.708 42.8147 -6.90926 0.00466283 1 
4731 1 -171.554 42.8942 -7.32335 0.00295972 1 
4732 1 -170.374 44.3377 -5.15333 0.00604022 1 
4733 1 -170.486 41.4917 -5.12032 0.0163872 1 
4734 1 -169.305 42.9333 -2.93837 0.0502199 1 
4735 1 -172.114 42.9971 -3.30511 0.0228854 1 
4736 1 -170.918 44.4589 -1.13145 0.118997 1 
4737 1 -170.977 41.5628 -1.07801 0.348032 1 
4767 1 -172.138 41.3287 -13.4424 0.000362141 1 
4768 1 -172.234 38.4656 -13.3728 0.000415155 1 
4769 1 -171.059 39.9116 -11.2177 0.000919306 1 
4770 1 -173.908 39.9998 -11.631 0.000529816 1 
4771 1 -172.732 41.4461 -9.47839 0.00111665 1 
4772 1 -172.834 38.5818 -9.41418 0.00127197 1 
4773 1 -171.663 40.0324 -7.26827 0.0031631 1 
4774 1 -174.503 40.1152 -7.6609 0.00210407 1 
4775 1 -173.318 41.5631 -5.50312 0.00910765 1 
4776 1 -173.443 38.7027 -5.4582 0.00885917 1 
4777 1 -172.262 40.168 -3.31421 0.0898909 1 
4778 1 -175.08 40.2263 -3.65597 0.0168253 1 
4779 1 -173.817 41.6217 -1.4362 0.200589 1 
4780 1 -174.006 38.8101 -1.46324 0.294488 1 
4830 1 -175.082 38.5548 -13.7855 0.000276589 1 
4832 1 -174.006 37.1358 -11.5628 0.000555747 1 
4834 1 -175.678 38.6691 -9.81186 0.000765301 1 
4836 1 -174.609 37.2507 -7.59814 0.00198539 1 
4838 1 -176.272 38.7842 -5.82464 0.00414196 1 
4840 1 -175.217 37.3827 -3.62398 0.0329727 1 
4842 1 -176.86 38.9167 -1.79929 0.068375 1 
5143 1 -100.011 27.3766 -14.7115 0.000140609 1 
5144 1 -98.839 28.8205 -12.5488 0.000172528 1 
5145 1 -101.675 28.9088 -12.9373 0.000175102 1 
5147 1 -100.6 27.492 -10.7096 0.000255299 1 
5148 1 -99.4241 28.9365 -8.55042 0.000772442 1 
5149 1 -102.26 29.0234 -8.92606 0.000704436 1 
5151 1 -101.178 27.6095 -6.7078 0.00307288 1 
5152 1 -99.9982 29.0638 -4.55993 0.0190637 1 
5153 1 -102.83 29.1344 -4.88986 0.0140343 1 
5155 1 -101.709 27.7165 -2.70923 0.131202 1 
5156 1 -100.414 29.2229 -0.557732 2.24136 5 
5157 1 -103.216 29.1545 -0.841333 5.54731 5 
5280 1 -101.774 26.0482 -12.8725 0.00017631 1 
5281 1 -104.606 26.1364 -13.2605 0.000177416 1 
5282 1 -103.435 27.58 -11.092 0.000284637 1 
5283 1 -103.534 24.7198 -11.0284 0.000265925 1 
5284 1 -102.358 26.1635 -8.86561 0.000560275 1 
5285 1 -105.193 26.2526 -9.24052 0.000848737 1 
5286 1 -104.013 27.6949 -7.07002 0.00305783 1 
5287 1 -104.114 24.8373 -7.02013 0.00323559 1 
5288 1 -102.926 26.2802 -4.86333 0.0236475 1 
5289 1 -105.763 26.3723 -5.20178 0.0138901 1 
5290 1 -104.533 27.7585 -2.98285 0.138835 1 
5291 1 -104.661 24.9295 -3.01969 0.0930469 1 
5292 1 -103.333 26.1502 -0.858834 6.9461 5 
5293 1 -106.31 26.395 -1.17872 5.3985 5 
5415 1 -104.704 23.2756 -13.1958 0.000166723 1 
5416 1 -107.532 23.3633 -13.5862 0.000174859 1 
5417 1 -106.364 24.8086 -11.4119 0.000284959 1 
5419 1 -105.291 23.3932 -9.18035 0.000870192 1 
5420 1 -108.122 23.4829 -9.55847 0.000817016 1 
5421 1 -106.953 24.9314 -7.38145 0.00400404 1 
5423 1 -105.867 23.5193 -5.18126 0.0173922 1 
5424 1 -108.71 23.6074 -5.5135 0.0204431 1 
5425 1 -107.518 25.0531 -3.35488 0.0407882 1 
5427 1 -106.405 23.6147 -1.18371 1.23843 5 
5428 1 -109.178 23.7322 -1.48487 5.30163 5 
5818 1 -32.3073 15.0381 -14.5941 0.000166024 1 
5820 1 -31.2436 13.6252 -12.3349 0.000261366 1 
5822 1 -32.8979 15.1619 -10.5498 0.000926778 1 
5824 1 -31.8353 13.7482 -8.29769 0.0025141 1 
5826 1 -33.5001 15.2937 -6.49313 0.0276524 1 
5828 1 -32.4077 13.8704 -4.33121 0.297476 1 
5830 1 -33.8315 15.2565 -2.41337 6.6296 5 
5951 1 -32.4066 12.1768 -14.5256 0.000153286 1 
5952 1 -35.2221 12.2614 -14.9454 0.000206497 1 
5953 1 -34.0574 13.711 -12.7485 0.000315317 1 
5954 1 -34.1562 10.8489 -12.6798 0.000280788 1 
5955 1 -32.9953 12.2983 -10.4848 0.000618137 1 
5956 1 -35.8063 12.3867 -10.9044 0.000793943 1 
5957 1 -34.6522 13.84 -8.69755 0.00421639 1 
5958 1 -34.7474 10.9734 -8.63719 0.00303985 1 
5959 1 -33.5926 12.4181 -6.458 0.0135254 1 
5960 1 -36.4141 12.5302 -6.84459 0.026888 1 
5961 1 -35.2434 13.9403 -4.6202 0.146369 1 
5962 1 -35.3565 11.07 -4.65175 0.0774435 1 
5963 1 -34.2246 12.3898 -2.53195 8.02952 5 
5964 1 -37.0555 12.5461 -2.78542 5.23085 5 
5965 1 -37.0344 13.7124 -0.299834 5.84996 5 
6086 1 -35.3216 9.39968 -14.8749 0.00019721 1 
6088 1 -36.9693 10.9341 -13.1073 0.000398322 1 
6089 1 -37.0689 8.07128 -13.0354 0.00038806 1 
6090 1 -35.9038 9.5222 -10.8357 0.000714274 1 
6091 1 -38.7155 9.6088 -11.2754 0.000765083 1 
6092 1 -37.5554 11.0682 -9.06702 0.00270232 1 
6093 1 -37.652 8.19878 -8.99912 0.00158008 1 
6094 1 -36.5027 9.65478 -6.80598 0.0117387 1 
6095 1 -39.3067 9.7533 -7.24297 0.00899781 1 
6096 1 -38.1712 11.208 -5.00523 0.0642476 1 
6097 1 -38.2593 8.36892 -4.97555 0.065492 1 
6098 1 -37.0914 9.78591 -2.7805 0.964382 5 
6099 1 -39.8694 9.94733 -3.07075 5.10004 5 
6100 1 -39.1077 11.6303 -0.739804 1.38425 5 
6101 1 -41.5112 9.71483 -0.815774 6.95379 5 
6414 1 -204.719 51.2045 -6.19443 0.0294202 1 
6418 1 36.2504 0.0448667 -2.42153 6.02021 5 
6421 1 -206.972 51.1773 -10.6303 0.00134191 1 
6422 1 34.103 0.0350368 -6.71212 0.0203205 1 
6423 1 33.4819 0.150133 -2.78694 0.0318449 1 
6469 1 -172.042 44.191 -13.5108 0.000302054 1 
6473 1 -172.632 44.307 -9.54092 0.000713061 1 
6477 1 -173.201 44.4099 -5.55511 0.00408874 1 
6481 1 -173.733 44.5058 -1.54484 0.109253 1 
6527 1 -174.888 44.2801 -13.9198 0.000212472 1 
6528 1 -174.985 41.4177 -13.8531 0.000251885 1 
6529 1 -173.809 42.8626 -11.6967 0.000415253 1 
6530 1 -176.653 42.9509 -12.096 0.000248704 1 
6531 1 -175.475 44.3944 -9.9394 0.00032568 1 
6532 1 -175.575 41.5321 -9.87628 0.000562566 1 
6533 1 -174.393 42.9744 -7.72051 0.00124061 1 
6534 1 -177.231 43.061 -8.11086 0.000549311 1 
6535 1 -176.036 44.4929 -5.95574 0.00386697 1 
6536 1 -176.148 41.6364 -5.88705 0.00375274 1 
6537 1 -174.93 43.054 -3.70778 0.0272073 1 
6538 1 -177.773 43.152 -4.13026 0.016546 1 
6539 1 -176.563 44.5717 -2.01611 0.0752808 1 
6540 1 -176.691 41.7254 -1.86684 0.0834782 1 
6606 1 -177.828 41.5064 -14.254 0.000182944 1 
6607 1 -177.926 38.6438 -14.1875 0.000203367 1 
6608 1 -176.752 40.088 -12.0309 0.000329196 1 
6609 1 -179.592 40.1763 -12.4234 0.000211368 1 
6610 1 -178.414 41.6195 -10.2663 0.000284671 1 
6611 1 -178.516 38.7564 -10.2009 0.000422226 1 
6612 1 -177.338 40.1986 -8.04576 0.000954584 1 
6613 1 -180.171 40.2851 -8.42882 0.000499181 1 
6614 1 -178.981 41.7243 -6.27606 0.00231148 1 
6615 1 -179.094 38.8621 -6.19939 0.00294884 1 
6616 1 -177.91 40.3037 -4.03485 0.0103307 1 
6617 1 -180.725 40.3833 -4.43244 0.0178634 1 
6618 1 -179.534 41.8483 -2.29134 0.134189 1 
6619 1 -179.688 39.0043 -2.14079 0.130737 1 
6620 1 -181.486 40.6662 -0.464768 6.75087 5 
6706 1 -180.765 38.7327 -14.583 0.000158631 1 
6710 1 -181.352 38.8445 -10.586 0.000224304 1 
6714 1 -181.917 38.9449 -6.58265 0.00246787 1 
6718 1 -182.465 39.0506 -2.57945 0.116829 1 
7098 1 -104.506 28.9968 -13.3255 0.000172797 1 
7099 1 -107.333 29.0845 -13.7168 0.000168649 1 
7100 1 -106.164 30.5275 -11.5412 0.000212083 1 
7101 1 -106.264 27.6677 -11.4758 0.000257243 1 
7102 1 -105.09 29.1083 -9.30271 0.000565543 1 
7103 1 -107.918 29.1961 -9.68665 0.000485976 1 
7104 1 -106.735 30.6272 -7.51091 0.00283911 1 
7105 1 -106.844 27.7787 -7.43864 0.00246822 1 
7106 1 -105.646 29.2022 -5.24679 0.0143912 1 
7107 1 -108.49 29.2943 -5.64643 0.0143145 1 
7108 1 -107.278 30.7121 -3.49828 0.0387235 1 
7109 1 -107.407 27.8831 -3.37261 0.0773923 1 
7110 1 -106.105 29.2384 -1.22003 5.86377 5 
7111 1 -109.051 29.4834 -1.65052 5.39641 5 
7232 1 -107.433 26.2239 -13.6513 0.000175156 1 
7233 1 -110.255 26.3103 -14.0481 0.000167682 1 
7234 1 -109.089 27.7552 -11.8653 0.000241949 1 
7235 1 -109.19 24.8955 -11.7997 0.000281014 1 
7236 1 -108.021 26.3393 -9.61957 0.000576788 1 
7237 1 -110.843 26.4246 -10.0087 0.000508789 1 
7238 1 -109.671 27.8647 -7.82669 0.00186262 1 
7239 1 -109.777 25.0117 -7.75309 0.00203571 1 
7240 1 -108.609 26.4622 -5.5603 0.0131142 1 
7241 1 -111.421 26.5362 -5.95294 0.0092564 1 
7242 1 -110.282 28.0192 -3.75693 0.107798 1 
7243 1 -110.362 25.1412 -3.67309 0.101861 1 
7244 1 -109.256 26.6518 -1.54617 5.81521 5 
7245 1 -112.129 26.7815 -1.93108 5.63926 5 
7366 1 -110.355 23.4496 -13.9818 0.000181151 1 
7368 1 -112.009 24.9808 -12.1962 0.000287602 1 
7370 1 -110.945 23.5673 -9.94224 0.000690423 1 
7372 1 -112.592 25.0899 -8.14297 0.00234482 1 
7374 1 -111.522 23.6756 -5.86595 0.013125 1 
7376 1 -113.161 25.1989 -4.07857 0.0824753 1 
7772 1 -36.8697 13.7951 -13.1774 0.000505892 1 
7773 1 -35.7062 15.2456 -10.9692 0.00115516 1 
7774 1 -38.5146 15.326 -11.4133 0.00177951 1 
7776 1 -37.4548 13.926 -9.12153 0.00405264 1 
7777 1 -36.3025 15.3718 -6.87143 0.018081 1 
7778 1 -39.0957 15.4475 -7.3363 0.0148465 1 
7780 1 -38.075 14.0603 -4.98376 0.151968 1 
7781 1 -36.786 15.3719 -2.76763 6.3607 5 
7782 1 -39.7795 15.6643 -3.16941 6.53569 5 
7784 1 -39.7574 14.4843 -0.654494 2.388 5 
7905 1 -39.6872 13.8771 -13.6208 0.000717202 1 
7906 1 -39.7863 11.0174 -13.5486 0.000567377 1 
7907 1 -38.6156 12.4709 -11.3442 0.00126839 1 
7908 1 -41.4342 12.5498 -11.8024 0.00143776 1 
7909 1 -40.2596 14.0009 -9.58651 0.0043924 1 
7910 1 -40.3615 11.1493 -9.52097 0.00316777 1 
7911 1 -39.2047 12.6106 -7.27863 0.0111076 1 
7912 1 -41.9994 12.6746 -7.77019 0.0212182 1 
7913 1 -40.8461 14.141 -5.50536 0.0924039 1 
7914 1 -40.93 11.2858 -5.43818 0.104285 1 
7915 1 -39.891 12.8295 -3.13018 5.82365 5 
7916 1 -42.6214 12.779 -3.80494 5.25658 5 
7917 1 -42.4041 15.5639 -0.854873 8.66676 5 
7918 1 -41.8698 12.6487 -0.93052 6.19777 5 
8039 1 -42.6127 11.0993 -13.9989 0.000622284 1 
8041 1 -41.5336 9.69048 -11.7299 0.00107022 1 
8042 1 -44.3653 9.77049 -12.1924 0.00117 1 
8043 1 -43.183 11.2225 -9.99699 0.00391867 1 
8045 1 -42.1085 9.82643 -7.71224 0.0100018 1 
8046 1 -44.944 9.89274 -8.21492 0.00608562 1 
8047 1 -43.756 11.3413 -6.01305 0.0288132 1 
8049 1 -42.6191 9.93722 -3.66915 5.09082 5 
8050 1 -45.5633 10.0675 -4.32129 0.411353 1 
8051 1 -44.1755 11.4342 -1.90144 7.90525 5 
8369 1 30.7876 1.44316 -13.3032 0.000422289 1 
8371 1 31.8679 0.0226562 -11.0748 0.00109723 1 
8373 1 30.1847 1.55687 -9.34501 0.00126258 1 
8375 1 31.2592 0.128729 -7.12901 0.00328048 1 
8377 1 29.5759 1.67034 -5.39276 0.00546486 1 
8379 1 30.678 0.225729 -3.18796 0.0134654 1 
8381 1 29.0012 1.7722 -1.50998 0.24247 1 
8383 1 29.0187 0.113572 -11.493 0.000513206 1 
8384 1 28.4185 0.226284 -7.52705 0.00147075 1 
8385 1 27.8344 0.339192 -3.5789 0.0166415 1 
8532 1 -177.731 44.3689 -14.3199 0.000158256 1 
8533 1 -176.556 45.8134 -12.1609 0.000203852 1 
8534 1 -179.395 45.9022 -12.5534 0.000165695 1 
8536 1 -178.315 44.4835 -10.3304 0.000223202 1 
8537 1 -177.134 45.9261 -8.17382 0.000686079 1 
8538 1 -179.972 46.0181 -8.55797 0.00070314 1 
8540 1 -178.88 44.5946 -6.34521 0.00262611 1 
8541 1 -177.688 46.0317 -4.21573 0.0129929 1 
8542 1 -180.536 46.1434 -4.56569 0.0185866 1 
8544 1 -179.388 44.7223 -2.41229 0.0951392 1 
8545 1 -178.215 46.091 -0.257787 0.850087 5 
8546 1 -180.955 46.3009 -0.553559 2.24557 5 
8632 1 -180.569 44.4573 -14.7146 0.000141132 1 
8633 1 -180.667 41.5949 -14.6489 0.000149734 1 