ITEM: TIMESTEP
0
ITEM: NUMBER OF ATOMS
8760
ITEM: BOX BOUNDS xy xz yz pp pp ss
0.0000000000000000e+00 8.3049691449999997e+01 8.5913473909999993e+00
0.0000000000000000e+00 6.5991391484000005e+01 0.0000000000000000e+00
-1.2497953730276619e+02 1.3521166187401025e+02 0.0000000000000000e+00
ITEM: ATOMS id type x y z c_csym c_cna 
24593 1 45.4019 65.299 -14.6652 4.69436e-05 1 
26278 1 40.6716 65.9128 -13.3228 6.96834e-05 1 
26342 1 42.6513 64.5376 -14.8656 4.17616e-05 1 
26343 1 41.771 62.0406 -13.768 7.50242e-05 1 
26344 1 42.5411 64.1751 -12.0213 0.000118133 1 
26345 1 44.521 62.8015 -13.5676 7.45259e-05 1 
26346 1 45.29 64.938 -11.8225 0.000206704 1 
26347 1 44.4099 62.4369 -10.7234 0.000308681 1 
26348 1 45.178 64.5754 -8.97992 0.00128592 1 
26427 1 42.8701 58.1705 -14.215 6.47423e-05 1 
26428 1 43.6401 60.3037 -12.4672 0.000189931 1 
26514 1 43.97 54.3005 -14.6652 4.69436e-05 1 
27937 1 35.1674 64.3981 -13.7419 2.62228e-05 1 
27938 1 37.9207 65.1548 -13.5318 3.43733e-05 1 
27939 1 37.8132 64.794 -10.6906 9.0482e-05 1 
27940 1 40.563 65.5503 -10.4777 0.000262192 1 
27941 1 40.4565 65.1855 -7.63071 0.00176611 1 
27942 1 43.1998 65.9457 -7.42669 0.00271138 1 
27943 1 43.0954 65.5571 -4.60162 0.0419389 1 
35588 1 45.7605 65.9749 -1.45704 3.02132 5 
28000 1 36.2685 60.5247 -14.1839 2.51821e-05 1 
28001 1 37.0407 62.6597 -12.4375 4.61303e-05 1 
28002 1 39.0205 61.2821 -13.9744 4.25828e-05 1 
28003 1 39.7921 63.4161 -12.2267 9.07892e-05 1 
28004 1 38.9123 60.92 -11.1305 0.000114249 1 
28005 1 39.6848 63.052 -9.38177 0.000311237 1 
28006 1 41.6617 61.676 -10.9216 0.00028141 1 
28007 1 42.4318 63.8089 -9.17654 0.000551639 1 
28008 1 41.553 61.3042 -8.07127 0.00156813 1 
28009 1 42.3244 63.4298 -6.33687 0.00497563 1 
28010 1 44.3007 62.0651 -7.87874 0.00204002 1 
28011 1 45.0719 64.2085 -6.14153 0.00972277 1 
28012 1 44.1969 61.6783 -5.038 0.01523 1 
28013 1 44.9732 63.819 -3.32275 0.0596897 1 
28078 1 37.3688 56.6518 -14.6265 2.69764e-05 1 
28079 1 38.1404 58.7865 -12.8791 5.67864e-05 1 
28080 1 40.1198 57.4104 -14.4187 5.64411e-05 1 
28081 1 40.8906 59.5442 -12.6703 0.000102487 1 
28082 1 40.0103 57.0483 -11.5728 0.000224197 1 
28083 1 40.7812 59.179 -9.82177 0.000317392 1 
28084 1 42.759 57.808 -11.368 0.000204869 1 
28085 1 43.5293 59.9364 -9.61606 0.000954143 1 
28086 1 42.6482 57.443 -8.51469 0.000719144 1 
28087 1 43.4186 59.5609 -6.75241 0.00617365 1 
28157 1 39.2397 54.9143 -13.3228 6.96835e-05 1 
28158 1 41.2194 53.5391 -14.8656 4.17616e-05 1 
28159 1 41.9892 55.6744 -13.1183 7.7318e-05 1 
28160 1 41.1092 53.1766 -12.0213 0.000118133 1 
28161 1 41.8783 55.3121 -10.2723 0.000250386 1 
28162 1 43.8581 53.9394 -11.8225 0.000206704 1 
28164 1 43.7461 53.5768 -8.97992 0.00128592 1 
28240 1 40.3391 51.0421 -13.768 7.50243e-05 1 
28242 1 43.0891 51.8029 -13.5676 7.45259e-05 1 
28243 1 42.2082 49.3052 -12.4672 0.000189931 1 
28244 1 42.978 51.4383 -10.7234 0.000308681 1 
28324 1 41.4382 47.172 -14.215 6.47424e-05 1 
28410 1 42.5382 43.3019 -14.6652 4.69436e-05 1 
29466 1 29.6559 62.884 -14.1563 4.84629e-05 1 
29467 1 30.4271 65.0217 -12.4138 6.06985e-05 1 
29468 1 32.4121 63.6415 -13.9506 3.33575e-05 1 
29469 1 33.1844 65.778 -12.2076 5.24455e-05 1 
29470 1 32.3027 63.2859 -11.1159 0.00011176 1 
29471 1 33.0756 65.4228 -9.37295 0.000187656 1 
29472 1 35.0593 64.0399 -10.9045 6.29722e-05 1 
29473 1 34.9515 63.6832 -8.06874 0.000208969 1 
29474 1 35.725 65.8175 -6.32652 0.00195944 1 
29475 1 37.7075 64.4328 -7.84953 0.000321346 1 
29476 1 37.6071 64.0743 -5.00978 0.00273405 1 
29477 1 40.3554 64.8116 -4.78406 0.0134689 1 
29478 1 40.2234 64.4517 -1.92666 6.45378 5 
29479 1 42.9637 65.0574 -1.82346 5.66273 5 
29527 1 30.7591 59.01 -14.6008 3.87732e-05 1 
29528 1 31.531 61.1477 -12.8589 7.16407e-05 1 
29529 1 33.5146 59.7676 -14.3934 2.70127e-05 1 
29530 1 34.2867 61.9041 -12.6492 4.12369e-05 1 
29531 1 33.4062 59.4097 -11.5577 7.82688e-05 1 
29532 1 34.1782 61.5474 -9.81338 0.000118137 1 
29533 1 36.1605 60.1653 -11.3444 7.10014e-05 1 
29534 1 36.9334 62.2997 -9.597 0.0001319 1 
29535 1 36.0525 59.8073 -8.50629 0.000374448 1 
29536 1 36.8267 61.9415 -6.75629 0.000693294 1 
29537 1 38.8045 60.556 -8.28446 0.000383189 1 
29538 1 39.5793 62.6837 -6.5358 0.00148904 1 
29539 1 38.6928 60.1951 -5.43528 0.00368992 1 
29540 1 39.4765 62.3168 -3.68792 0.0219651 1 
29541 1 41.4445 60.9184 -5.21133 0.0136338 1 
29542 1 42.2184 63.0068 -3.50814 0.0817237 1 
29543 1 41.3344 60.5531 -2.32875 0.124921 1 
29544 1 42.0104 62.6869 -0.615174 7.09027 5 
29545 1 44.1132 61.2621 -2.19982 0.378548 1 
29546 1 44.8679 63.4391 -0.520314 4.34204 5 
29598 1 32.6338 57.273 -13.3005 3.56141e-05 1 
29599 1 34.616 55.894 -14.8356 1.87099e-05 1 
29600 1 35.3883 58.0297 -13.0904 3.74555e-05 1 
29601 1 34.508 55.535 -11.9972 4.16521e-05 1 
29602 1 35.2807 57.6706 -10.2523 0.000122255 1 
29603 1 37.2607 56.291 -11.7846 6.9873e-05 1 
29604 1 38.0325 58.4247 -10.0355 0.000182068 1 
29605 1 37.1537 55.9294 -8.94191 0.000238119 1 
29606 1 37.9248 58.0627 -7.191 0.00113847 1 
29607 1 39.901 56.6839 -8.72127 0.00147656 1 
29608 1 40.6711 58.809 -6.96718 0.00150584 1 
29609 1 39.7919 56.3155 -5.85607 0.0165479 1 
29610 1 40.5517 58.4521 -4.10646 0.0284036 1 
29611 1 42.5371 57.0728 -5.65233 0.00731813 1 
29612 1 43.312 59.1671 -3.85913 0.068576 1 
29613 1 42.4066 56.6873 -2.8153 0.411677 1 
29614 1 43.0853 58.7446 -0.929196 2.86871 5 
29668 1 33.7355 53.3995 -13.7419 2.62227e-05 1 
29670 1 36.4888 54.1562 -13.5318 3.43733e-05 1 
29671 1 35.6088 51.6612 -12.4375 4.61303e-05 1 
29672 1 36.3813 53.7955 -10.6906 9.0482e-05 1 
29673 1 38.3602 52.4176 -12.2267 9.07893e-05 1 
29674 1 39.1311 54.5518 -10.4777 0.000262192 1 
29675 1 38.2529 52.0535 -9.38177 0.000311237 1 
29676 1 39.0246 54.1869 -7.63071 0.00176611 1 
29677 1 40.9999 52.8103 -9.17654 0.000551639 1 
29678 1 41.7679 54.9471 -7.42669 0.00271138 1 
29679 1 40.8925 52.4312 -6.33687 0.00497563 1 
29680 1 41.6635 54.5585 -4.60162 0.0419389 1 
29681 1 43.64 53.2099 -6.14153 0.00972278 1 
29683 1 43.5413 52.8205 -3.32275 0.0596897 1 
32591 1 41.4648 32.9792 -1.45704 3.02132 5 
29742 1 34.8366 49.5261 -14.1839 2.51821e-05 1 
29744 1 37.5886 50.2835 -13.9744 4.25829e-05 1 
29745 1 36.7085 47.7879 -12.8791 5.67865e-05 1 
29746 1 37.4804 49.9214 -11.1305 0.000114249 1 
29747 1 39.4587 48.5456 -12.6703 0.000102487 1 
29748 1 40.2298 50.6774 -10.9216 0.00028141 1 
29749 1 39.3493 48.1805 -9.82177 0.000317392 1 
29750 1 40.1212 50.3056 -8.07127 0.00156813 1 
29751 1 42.0974 48.9379 -9.61606 0.000954143 1 
29752 1 42.8688 51.0666 -7.87874 0.00204002 1 
29753 1 41.9867 48.5623 -6.75241 0.00617365 1 
29754 1 42.765 50.6797 -5.038 0.01523 1 
29818 1 35.9369 45.6532 -14.6265 2.69765e-05 1 
29820 1 38.6879 46.4119 -14.4187 5.64412e-05 1 
29821 1 37.8078 43.9157 -13.3228 6.96836e-05 1 
29822 1 38.5784 46.0497 -11.5728 0.000224197 1 
29823 1 40.5573 44.6759 -13.1183 7.7318e-05 1 
29824 1 41.3271 46.8095 -11.368 0.000204869 1 
29825 1 40.4464 44.3135 -10.2723 0.000250386 1 
29826 1 41.2163 46.4444 -8.51469 0.000719144 1 
29898 1 39.7875 42.5405 -14.8656 4.17616e-05 1 
29899 1 38.9072 40.0435 -13.768 7.50244e-05 1 
29900 1 39.6773 42.178 -12.0213 0.000118133 1 
29901 1 41.6572 40.8044 -13.5676 7.45259e-05 1 
29902 1 42.4262 42.9409 -11.8225 0.000206704 1 
29903 1 41.5461 40.4398 -10.7234 0.000308681 1 
29904 1 42.3142 42.5782 -8.97992 0.00128592 1 
29980 1 40.0063 36.1734 -14.215 6.47424e-05 1 
29981 1 40.7763 38.3066 -12.4672 0.000189931 1 
30062 1 41.1063 32.3033 -14.6652 4.69436e-05 1 
30810 1 23.0442 65.237 -14.1087 3.06229e-05 1 
30811 1 17.206 0.00636768 -13.9088 3.67173e-05 1 
30812 1 25.6841 65.6435 -11.07 0.00020918 1 
30851 1 24.1456 61.3646 -14.5561 2.85898e-05 1 
30852 1 24.9153 63.5035 -12.8142 7.79376e-05 1 
30853 1 26.9 62.1249 -14.3578 4.39025e-05 1 
30854 1 27.6701 64.264 -12.6165 0.000118286 1 
30855 1 26.7877 61.7694 -11.5243 0.000299804 1 
30856 1 27.5566 63.9116 -9.78499 0.000777834 1 
30857 1 29.5451 62.5293 -11.3239 0.000207519 1 
30858 1 30.3157 64.6681 -9.579 0.000328238 1 
30859 1 29.4336 62.1788 -8.49808 0.00132091 1 
30860 1 30.2043 64.3177 -6.73832 0.00606579 1 
30861 1 32.1925 62.9346 -8.2837 0.000712979 1 
30862 1 32.9671 65.0726 -6.53987 0.00188928 1 
30863 1 32.0778 62.5932 -5.45338 0.0103614 1 
30864 1 32.8708 64.7181 -3.71629 0.0597725 1 
30865 1 34.8457 63.3247 -5.23744 0.00494851 1 
30866 1 35.622 65.4517 -3.50339 0.0452929 1 
30867 1 34.7783 62.9481 -2.41603 0.199519 1 
30868 1 35.5418 65.0113 -0.689495 5.38265 5 
30869 1 37.5315 63.7177 -2.18124 0.100064 1 
30870 1 38.2861 65.9848 -0.448341 5.97448 5 
30910 1 26.0177 59.6303 -13.2623 6.63016e-05 1 
30911 1 28.0029 58.2518 -14.8039 3.21076e-05 1 
30912 1 28.7741 60.3896 -13.0639 9.95101e-05 1 
30913 1 27.8915 57.8953 -11.9693 0.000129888 1 
30914 1 28.6632 60.0338 -10.2346 0.000574472 1 
30915 1 30.6498 58.6529 -11.7675 0.000156561 1 
30916 1 31.4217 60.7927 -10.0279 0.000289995 1 
30917 1 30.5409 58.2961 -8.93911 0.000981204 1 
30918 1 31.311 60.4428 -7.2047 0.00153681 1 
30919 1 33.2978 59.0533 -8.72495 0.00038956 1 
30920 1 34.0668 61.1948 -6.97961 0.00111346 1 
30921 1 33.1857 58.7017 -5.8982 0.00514734 1 
30922 1 33.937 60.8576 -4.143 0.0261451 1 
30923 1 35.9382 59.4568 -5.67437 0.0036051 1 
30924 1 36.7188 61.5875 -3.91041 0.0213908 1 
30925 1 35.8144 59.1109 -2.87084 0.0830969 1 
30926 1 36.5683 61.2032 -0.986965 0.59526 1 
30927 1 38.541 59.858 -2.59101 0.135192 1 
30928 1 39.3112 61.8743 -0.828911 4.90288 5 
30972 1 27.1206 55.7583 -13.7095 5.25272e-05 1 
30974 1 29.8774 56.5159 -13.5073 4.8177e-05 1 
30975 1 28.9952 54.0232 -12.4138 6.06985e-05 1 
30976 1 29.7671 56.1595 -10.6736 0.000168544 1 
30977 1 31.7525 54.7794 -12.2076 5.24455e-05 1 
30978 1 32.5256 56.9152 -10.4648 0.000119159 1 
30979 1 31.6437 54.4242 -9.37295 0.000187656 1 
30980 1 32.4177 56.5582 -7.62688 0.00196377 1 
30981 1 34.4006 55.1766 -9.16005 0.000126303 1 
30982 1 35.1735 57.3127 -7.41746 0.00097431 1 
30983 1 34.2931 54.8189 -6.32652 0.00195944 1 
30984 1 35.061 56.9571 -4.59697 0.0136647 1 
30985 1 37.0497 55.5669 -6.09921 0.00247332 1 
30986 1 37.8138 57.7065 -4.35256 0.0105264 1 
30987 1 36.961 55.2228 -3.26087 0.0476791 1 
30988 1 37.6753 57.4022 -1.51305 2.85104 5 
30989 1 39.7046 55.9584 -2.97607 5.35411 5 
30990 1 40.3506 58.1924 -1.22173 4.49076 5 
30991 1 39.1621 56.5961 0.73213 4.93949 5 
30992 1 41.8319 56.1205 -0.208009 9.27066 5 
31036 1 28.224 51.8854 -14.1563 4.84629e-05 1 
31038 1 30.9802 52.6429 -13.9506 3.33574e-05 1 
31039 1 30.0991 50.1491 -12.8589 7.16407e-05 1 
31040 1 30.8708 52.2873 -11.1159 0.00011176 1 
31041 1 32.8548 50.9055 -12.6492 4.12369e-05 1 
31042 1 33.6274 53.0414 -10.9045 6.29722e-05 1 
31043 1 32.7463 50.5489 -9.81338 0.000118137 1 
31044 1 33.5196 52.6846 -8.06874 0.000208968 1 
31045 1 35.5015 51.3012 -9.597 0.0001319 1 
31046 1 36.2756 53.4342 -7.84953 0.000321346 1 
31047 1 35.3948 50.9429 -6.75629 0.000693294 1 
31048 1 36.1752 53.0757 -5.00978 0.00273405 1 
31049 1 38.1474 51.6851 -6.5358 0.00148904 1 
31050 1 38.9235 53.813 -4.78406 0.0134689 1 
31051 1 38.0446 51.3182 -3.68792 0.0219651 1 
31052 1 38.7915 53.4532 -1.92666 6.45378 5 
31053 1 40.7865 52.0083 -3.50814 0.0817237 1 
31054 1 41.5318 54.0589 -1.82346 5.66273 5 
31055 1 40.5785 51.6883 -0.615174 7.09027 5 
31056 1 43.436 52.4406 -0.520314 4.34204 5 
31102 1 29.3272 48.0115 -14.6008 3.87732e-05 1 
31104 1 32.0827 48.769 -14.3934 2.70127e-05 1 
31105 1 31.2019 46.2744 -13.3005 3.56141e-05 1 
31106 1 31.9743 48.4112 -11.5577 7.82689e-05 1 
31107 1 33.9564 47.0312 -13.0904 3.74555e-05 1 
31108 1 34.7286 49.1667 -11.3444 7.10014e-05 1 
31109 1 33.8488 46.672 -10.2523 0.000122255 1 
31110 1 34.6206 48.8087 -8.50629 0.000374448 1 
31111 1 36.6006 47.4261 -10.0355 0.000182068 1 
31112 1 37.3727 49.5575 -8.28446 0.000383189 1 
31113 1 36.4929 47.0641 -7.191 0.00113847 1 
31114 1 37.2609 49.1965 -5.43528 0.00368992 1 
31115 1 39.2392 47.8104 -6.96718 0.00150584 1 
31116 1 40.0126 49.9199 -5.21133 0.0136338 1 
31117 1 39.1199 47.4535 -4.10646 0.0284036 1 
31118 1 39.9025 49.5545 -2.32875 0.124921 1 
31119 1 41.8801 48.1685 -3.85913 0.068576 1 
31120 1 42.6813 50.2635 -2.19982 0.378548 1 
31121 1 41.6534 47.746 -0.929196 2.86871 5 
31172 1 33.1842 44.8955 -14.8356 1.87099e-05 1 
31173 1 32.3036 42.4009 -13.7419 2.62228e-05 1 
31174 1 33.0761 44.5364 -11.9972 4.16521e-05 1 
31175 1 35.0569 43.1577 -13.5318 3.43733e-05 1 
31176 1 35.8288 45.2924 -11.7846 6.98731e-05 1 
31177 1 34.9495 42.7969 -10.6906 9.0482e-05 1 
31178 1 35.7218 44.9308 -8.94191 0.000238119 1 
31179 1 37.6993 43.5532 -10.4777 0.000262193 1 
31180 1 38.4691 45.6853 -8.72127 0.00147656 1 
31181 1 37.5927 43.1884 -7.63071 0.00176611 1 
31182 1 38.36 45.3169 -5.85607 0.0165479 1 
31183 1 40.336 43.9486 -7.42669 0.00271138 1 
31184 1 41.1052 46.0743 -5.65233 0.00731813 1 
31185 1 40.2316 43.5599 -4.60162 0.0419389 1 
31186 1 40.9748 45.6888 -2.8153 0.411677 1 
31189 1 42.8967 43.9778 -1.45704 3.02132 5 
31242 1 33.4047 38.5276 -14.1839 2.51821e-05 1 
31243 1 34.1769 40.6626 -12.4375 4.61303e-05 1 
31244 1 36.1567 39.2849 -13.9744 4.2583e-05 1 
31245 1 36.9283 41.419 -12.2267 9.07894e-05 1 
31246 1 36.0485 38.9228 -11.1305 0.000114249 1 
31247 1 36.821 41.0549 -9.38177 0.000311237 1 
31248 1 38.7979 39.6788 -10.9216 0.00028141 1 
31249 1 39.5681 41.8118 -9.17654 0.000551639 1 
31250 1 38.6893 39.3071 -8.07127 0.00156813 1 
31251 1 39.4606 41.4327 -6.33687 0.00497563 1 
31252 1 41.4369 40.068 -7.87874 0.00204002 1 
31253 1 42.2081 42.2114 -6.14153 0.00972277 1 
31254 1 41.3331 39.6811 -5.038 0.01523 1 
31255 1 42.1094 41.8219 -3.32275 0.0596898 1 
31316 1 34.505 34.6546 -14.6265 2.69765e-05 1 
31317 1 35.2767 36.7894 -12.8791 5.67865e-05 1 
31318 1 37.256 35.4133 -14.4187 5.64413e-05 1 
31319 1 38.0268 37.5471 -12.6703 0.000102487 1 
31320 1 37.1465 35.0512 -11.5728 0.000224198 1 
31321 1 37.9174 37.1819 -9.82177 0.000317392 1 
31322 1 39.8952 35.8109 -11.368 0.000204869 1 
31323 1 40.6655 37.9393 -9.61606 0.000954143 1 
31324 1 39.7844 35.4458 -8.51469 0.000719144 1 
31325 1 40.5548 37.5638 -6.75241 0.00617365 1 
31391 1 36.3759 32.9171 -13.3228 6.96837e-05 1 
31392 1 38.3556 31.5419 -14.8656 4.17617e-05 1 
31393 1 39.1254 33.6773 -13.1183 7.73181e-05 1 
31394 1 38.2455 31.1794 -12.0213 0.000118133 1 
31395 1 39.0145 33.315 -10.2723 0.000250386 1 
31396 1 40.9943 31.9423 -11.8225 0.000206704 1 
31398 1 40.8823 31.5797 -8.97992 0.00128592 1 
31468 1 37.4753 29.0449 -13.768 7.50244e-05 1 
31470 1 40.2253 29.8058 -13.5676 7.45258e-05 1 
31471 1 39.3445 27.308 -12.4672 0.000189931 1 
31472 1 40.1142 29.4412 -10.7234 0.000308681 1 
31548 1 38.5744 25.1748 -14.215 6.47424e-05 1 
31630 1 39.6744 21.3048 -14.6652 4.69436e-05 1 
32058 1 17.5381 63.714 -14.5155 1.38972e-05 1 
32059 1 18.3098 65.8517 -12.7717 3.2944e-05 1 
32060 1 20.2917 64.4754 -14.3112 1.38103e-05 1 
32061 1 20.1822 64.1187 -11.4708 5.505e-05 1 
32062 1 22.9325 64.8818 -11.2679 0.000173046 1 
32063 1 22.8199 64.5287 -8.4257 0.00112066 1 
32064 1 25.5682 65.292 -8.22922 0.00135409 1 
32065 1 25.4484 64.9364 -5.3826 0.0144843 1 
32066 1 28.2137 65.6898 -5.20737 0.0135174 1 
32067 1 28.064 65.3197 -2.34971 6.24927 5 
32098 1 18.6398 59.8428 -14.9606 1.12533e-05 1 
32099 1 19.4112 61.9803 -13.2157 2.87307e-05 1 
32100 1 21.3928 60.6039 -14.7568 2.08542e-05 1 
32101 1 22.1632 62.7418 -13.0124 5.17024e-05 1 
32102 1 21.2825 60.2469 -11.9147 0.000102567 1 
32103 1 22.0526 62.3848 -10.1697 0.000292333 1 
32104 1 24.0335 61.0078 -11.7154 0.000243227 1 
32105 1 24.8015 63.149 -9.9775 0.000684414 1 
32106 1 23.9202 60.6495 -8.86885 0.00272475 1 
32107 1 24.6841 62.7963 -7.14524 0.00767881 1 
32108 1 26.6735 61.4149 -8.69936 0.00303853 1 
32109 1 27.441 63.5644 -6.96267 0.00598183 1 
32110 1 26.5557 61.0644 -5.90122 0.0376506 1 
32111 1 27.3195 63.2176 -4.15414 0.0598511 1 
32112 1 29.3189 61.8377 -5.68527 0.00983882 1 
32113 1 30.0792 63.9853 -3.87324 0.138971 1 
32114 1 29.196 61.5298 -2.88625 0.159851 1 
32115 1 29.9413 63.7994 -0.816899 5.86927 5 
32116 1 31.9171 62.2792 -2.61019 0.3104 1 
32117 1 32.8553 64.2431 -0.916285 6.58627 5 
32149 1 20.5118 58.1095 -13.6611 3.09218e-05 1 
32151 1 23.264 58.8703 -13.4591 6.60363e-05 1 
32152 1 22.3823 56.377 -12.3628 0.000109946 1 
32153 1 23.1519 58.5141 -10.6149 0.000419692 1 
32154 1 25.1351 57.1368 -12.1651 0.000114052 1 
32155 1 25.9044 59.2733 -10.4258 0.000497224 1 
32156 1 25.0205 56.7812 -9.32341 0.000697232 1 
32157 1 25.7879 58.9126 -7.58904 0.00517591 1 
32158 1 27.7787 57.5385 -9.13634 0.000739407 1 
32159 1 28.5515 59.6782 -7.41718 0.00468821 1 
32160 1 27.6633 57.1787 -6.30114 0.00781188 1 
32161 1 28.441 59.3329 -4.62735 0.0487629 1 
32162 1 30.4326 57.9408 -6.12129 0.00861465 1 
32163 1 31.1949 60.1096 -4.39524 0.0134668 1 
32164 1 30.3224 57.6058 -3.32835 0.103634 1 
32165 1 31.0566 59.8463 -1.59486 0.27256 1 
32166 1 33.0571 58.3785 -3.08277 0.102368 1 
32167 1 33.8613 60.5741 -1.30417 5.27319 5 
32168 1 32.8587 58.2553 -0.257929 8.1975 5 
32169 1 35.5727 58.6801 -0.129253 6.53303 5 
32203 1 21.6123 54.2384 -14.1087 3.06229e-05 1 
32205 1 24.3654 54.9992 -13.9088 3.67173e-05 1 
32206 1 23.4834 52.5049 -12.8142 7.79376e-05 1 
32207 1 24.2522 54.6449 -11.07 0.00020918 1 
32208 1 26.2382 53.2654 -12.6165 0.000118286 1 
32209 1 27.0082 55.4034 -10.8742 0.000264673 1 
32210 1 26.1247 52.9131 -9.78499 0.000777834 1 
32211 1 26.8944 55.0506 -8.03954 0.00176584 1 
32212 1 28.8839 53.6695 -9.579 0.000328238 1 
32213 1 29.6555 55.8036 -7.84136 0.000923196 1 
32214 1 28.7724 53.3191 -6.73832 0.00606579 1 
32215 1 29.5429 55.4519 -5.01096 0.012112 1 
32216 1 31.5352 54.0741 -6.53987 0.00188928 1 
32217 1 32.31 56.2034 -4.7716 0.0440149 1 
32218 1 31.4389 53.7196 -3.71629 0.0597724 1 
32219 1 32.1906 55.8661 -1.84561 5.66806 5 
32220 1 34.1901 54.4531 -3.50339 0.0452929 1 
32221 1 34.9077 56.5913 -1.83085 0.473541 5 
32222 1 34.1099 54.0127 -0.689495 5.38265 5 
32223 1 36.8542 54.9862 -0.448341 5.97448 5 
32259 1 22.7138 50.3661 -14.5561 2.85898e-05 1 
32261 1 25.4681 51.1264 -14.3578 4.39025e-05 1 
32262 1 24.5858 48.6317 -13.2623 6.63016e-05 1 
32263 1 25.3558 50.7708 -11.5243 0.000299804 1 
32264 1 27.3422 49.3911 -13.0639 9.95102e-05 1 
32265 1 28.1132 51.5308 -11.3239 0.000207519 1 
32266 1 27.2313 49.0352 -10.2346 0.000574473 1 
32267 1 28.0017 51.1803 -8.49808 0.00132091 1 
32268 1 29.9898 49.7941 -10.0279 0.000289995 1 
32269 1 30.7607 51.936 -8.2837 0.000712979 1 
32270 1 29.8792 49.4442 -7.2047 0.00153681 1 
32271 1 30.6459 51.5946 -5.45338 0.0103614 1 
32272 1 32.6349 50.1963 -6.97961 0.00111346 1 
32273 1 33.4138 52.3261 -5.23744 0.00494851 1 
32274 1 32.5051 49.859 -4.143 0.0261451 1 
32275 1 33.3465 51.9495 -2.41603 0.199519 1 
32276 1 35.2869 50.589 -3.91041 0.0213908 1 
32277 1 36.0996 52.7192 -2.18124 0.100064 1 
32278 1 35.1364 50.2047 -0.986965 0.59526 1 
32279 1 37.8793 50.8757 -0.828911 4.90288 5 
32319 1 26.571 47.2533 -14.8039 3.21076e-05 1 
32320 1 25.6887 44.7597 -13.7095 5.25273e-05 1 
32321 1 26.4596 46.8967 -11.9693 0.000129889 1 
32322 1 28.4455 45.5174 -13.5073 4.8177e-05 1 
32323 1 29.2179 47.6544 -11.7675 0.000156561 1 
32324 1 28.3352 45.1609 -10.6736 0.000168544 1 
32325 1 29.109 47.2975 -8.93911 0.000981204 1 
32326 1 31.0937 45.9166 -10.4648 0.000119159 1 
32327 1 31.8659 48.0547 -8.72495 0.00038956 1 
32328 1 30.9858 45.5596 -7.62688 0.00196377 1 
32329 1 31.7538 47.7031 -5.8982 0.00514734 1 
32330 1 33.7416 46.3141 -7.41746 0.00097431 1 
32331 1 34.5063 48.4583 -5.67437 0.0036051 1 
32332 1 33.6291 45.9586 -4.59697 0.0136647 1 
32333 1 34.3826 48.1123 -2.87084 0.0830969 1 
32334 1 36.3819 46.7079 -4.35256 0.0105264 1 
32335 1 37.1091 48.8595 -2.59101 0.135192 1 
32336 1 36.2434 46.4036 -1.51305 2.85104 5 
32337 1 38.9187 47.1939 -1.22173 4.49076 5 
32380 1 26.7921 40.8869 -14.1563 4.8463e-05 1 
32381 1 27.5633 43.0246 -12.4138 6.06985e-05 1 
32382 1 29.5483 41.6444 -13.9506 3.33575e-05 1 
32383 1 30.3206 43.7809 -12.2076 5.24455e-05 1 
32384 1 29.4389 41.2887 -11.1159 0.00011176 1 
32385 1 30.2118 43.4257 -9.37295 0.000187656 1 
32386 1 32.1955 42.0428 -10.9045 6.29723e-05 1 
32387 1 32.9687 44.1781 -9.16005 0.000126303 1 
32388 1 32.0877 41.6861 -8.06874 0.000208968 1 
32389 1 32.8612 43.8204 -6.32652 0.00195944 1 
32390 1 34.8438 42.4357 -7.84953 0.000321346 1 
32391 1 35.6179 44.5683 -6.09921 0.00247332 1 
32392 1 34.7433 42.0772 -5.00978 0.00273405 1 
32393 1 35.5291 44.2242 -3.26087 0.0476791 1 
32394 1 37.4916 42.8144 -4.78406 0.0134689 1 
32395 1 38.2727 44.9599 -2.97607 5.35411 5 
32396 1 37.3597 42.4546 -1.92666 6.45378 5 
32397 1 37.7302 45.5975 0.73213 4.93949 5 
32398 1 40.0999 43.0603 -1.82346 5.66273 5 
32399 1 40.4 45.1219 -0.208009 9.27067 5 
32442 1 27.8953 37.0129 -14.6008 3.87732e-05 1 
32443 1 28.6672 39.1505 -12.8589 7.16408e-05 1 
32444 1 30.6508 37.7704 -14.3934 2.70127e-05 1 
32445 1 31.4229 39.9069 -12.6492 4.12369e-05 1 
32446 1 30.5424 37.4126 -11.5577 7.82689e-05 1 
32447 1 31.3144 39.5503 -9.81338 0.000118137 1 
32448 1 33.2967 38.1681 -11.3444 7.10014e-05 1 
32449 1 34.0696 40.3026 -9.597 0.0001319 1 
32450 1 33.1887 37.8101 -8.50629 0.000374448 1 
32451 1 33.9629 39.9444 -6.75629 0.000693293 1 
32452 1 35.9408 38.5589 -8.28446 0.000383189 1 
32453 1 36.7155 40.6865 -6.5358 0.00148904 1 
32454 1 35.829 38.198 -5.43528 0.00368992 1 
32455 1 36.6127 40.3196 -3.68792 0.0219651 1 
32456 1 38.5807 38.9213 -5.21133 0.0136338 1 
32457 1 39.3546 41.0097 -3.50814 0.0817237 1 
32458 1 38.4706 38.5559 -2.32875 0.124921 1 
32459 1 39.1466 40.6898 -0.615174 7.09027 5 
32460 1 41.2495 39.2649 -2.19982 0.378548 1 
32461 1 42.0041 41.442 -0.520314 4.34204 5 
32509 1 29.77 35.2758 -13.3005 3.56142e-05 1 
32510 1 31.7523 33.8969 -14.8356 1.87099e-05 1 
32511 1 32.5245 36.0326 -13.0904 3.74555e-05 1 
32512 1 31.6443 33.5379 -11.9972 4.16522e-05 1 
32513 1 32.4169 35.6735 -10.2523 0.000122255 1 
32514 1 34.3969 34.2938 -11.7846 6.98731e-05 1 
32515 1 35.1687 36.4276 -10.0355 0.000182068 1 
32516 1 34.2899 33.9322 -8.94191 0.000238119 1 
32517 1 35.061 36.0656 -7.191 0.00113847 1 
32518 1 37.0372 34.6868 -8.72127 0.00147656 1 
32519 1 37.8073 36.8118 -6.96718 0.00150584 1 
32520 1 36.9281 34.3183 -5.85607 0.0165479 1 
32521 1 37.688 36.455 -4.10646 0.0284036 1 
32522 1 39.6733 35.0757 -5.65233 0.00731813 1 
32523 1 40.4482 37.17 -3.85913 0.068576 1 
32524 1 39.5429 34.6902 -2.8153 0.411677 1 
32525 1 40.2215 36.7475 -0.929196 2.86871 5 
32575 1 30.8717 31.4024 -13.7419 2.62228e-05 1 
32577 1 33.625 32.1591 -13.5318 3.43733e-05 1 
32578 1 32.745 29.664 -12.4375 4.61303e-05 1 
32579 1 33.5176 31.7983 -10.6906 9.04821e-05 1 
32580 1 35.4964 30.4204 -12.2267 9.07895e-05 1 
32581 1 36.2674 32.5546 -10.4777 0.000262193 1 
32582 1 35.3892 30.0564 -9.38177 0.000311237 1 
32583 1 36.1608 32.1898 -7.63071 0.00176611 1 
32584 1 38.1362 30.8132 -9.17654 0.000551639 1 
32585 1 38.9041 32.95 -7.42669 0.00271138 1 
32586 1 38.0287 30.4341 -6.33687 0.00497563 1 
32587 1 38.7997 32.5614 -4.60162 0.0419389 1 
32588 1 40.7762 31.2128 -6.14153 0.00972278 1 
32590 1 40.6775 30.8233 -3.32275 0.0596897 1 
34811 1 38.601 10.9821 -1.45704 3.02132 5 
32645 1 31.9728 27.529 -14.1839 2.51821e-05 1 
32647 1 34.7249 28.2864 -13.9744 4.2583e-05 1 
32648 1 33.8448 25.7908 -12.8791 5.67865e-05 1 
32649 1 34.6166 27.9243 -11.1305 0.000114249 1 
32650 1 36.5949 26.5485 -12.6703 0.000102487 1 
32651 1 37.366 28.6803 -10.9216 0.00028141 1 
32652 1 36.4855 26.1833 -9.82177 0.000317392 1 
32653 1 37.2574 28.3085 -8.07127 0.00156813 1 
32654 1 39.2336 26.9407 -9.61606 0.000954142 1 
32655 1 40.005 29.0694 -7.87874 0.00204002 1 
32656 1 39.1229 26.5652 -6.75241 0.00617365 1 
32657 1 39.9012 28.6826 -5.038 0.01523 1 
32717 1 33.0731 23.6561 -14.6265 2.69765e-05 1 
32719 1 35.8241 24.4147 -14.4187 5.64413e-05 1 
32720 1 34.9441 21.9186 -13.3228 6.96836e-05 1 
32721 1 35.7146 24.0526 -11.5728 0.000224198 1 
32722 1 37.6935 22.6788 -13.1183 7.7318e-05 1 
32723 1 38.4633 24.8123 -11.368 0.000204869 1 
32724 1 37.5826 22.3164 -10.2723 0.000250386 1 
32725 1 38.3525 24.4473 -8.51469 0.000719144 1 
32792 1 36.9237 20.5434 -14.8656 4.17616e-05 1 
32793 1 36.0434 18.0464 -13.768 7.50243e-05 1 
32794 1 36.8136 20.1809 -12.0213 0.000118133 1 
32795 1 38.7935 18.8072 -13.5676 7.45258e-05 1 
32796 1 39.5624 20.9437 -11.8225 0.000206704 1 
32797 1 38.6823 18.4426 -10.7234 0.000308681 1 
32798 1 39.4504 20.5811 -8.97992 0.00128592 1 
32870 1 37.1425 14.1763 -14.215 6.47423e-05 1 
32871 1 37.9126 16.3095 -12.4672 0.000189931 1 
32948 1 38.2425 10.3062 -14.6652 4.69436e-05 1 
33155 1 12.0276 62.1903 -14.9187 4.43443e-05 1 
33156 1 12.7981 64.3277 -13.1774 0.000106355 1 
33157 1 14.7831 62.9524 -14.7191 3.60113e-05 1 
33158 1 15.5544 65.0899 -12.9766 6.45505e-05 1 
33159 1 14.6737 62.5945 -11.8846 0.000152759 1 
33160 1 15.4455 64.7331 -10.1424 0.000246341 1 
33161 1 17.4295 63.3568 -11.6777 5.97146e-05 1 
33162 1 18.2017 65.4957 -9.9328 0.000197672 1 
33163 1 17.3229 63.0016 -8.83963 0.000316564 1 
33164 1 18.0962 65.143 -7.09225 0.0020958 1 
33165 1 20.0738 63.7621 -8.62948 0.000275524 1 
33166 1 20.8422 65.9067 -6.88142 0.00140342 1 
33167 1 19.9666 63.3995 -5.79231 0.00367358 1 
33168 1 20.7355 65.5405 -4.05417 0.0473684 1 
33169 1 22.7092 64.1781 -5.58425 0.00847958 1 
33170 1 22.6177 63.8173 -2.76036 0.079893 1 
33171 1 14.7463 0.0437353 -0.944308 6.41512 5 
33172 1 25.3422 64.623 -2.46191 4.3104 5 
33196 1 13.9016 60.4566 -13.6255 9.18716e-05 1 
33198 1 16.6575 61.2188 -13.4218 3.84802e-05 1 
33199 1 15.7765 58.7235 -12.3288 0.000122295 1 
33200 1 16.5499 60.8619 -10.5854 0.000168397 1 
33201 1 18.5308 59.4855 -12.1207 5.54722e-05 1 
33202 1 19.3026 61.623 -10.3743 0.000125418 1 
33203 1 18.4227 59.1285 -9.27835 0.00026991 1 
33204 1 19.1941 61.2649 -7.52994 0.000734551 1 
33205 1 21.1725 59.8897 -9.06766 0.000426294 1 
33206 1 21.9439 62.0254 -7.32337 0.00218561 1 
33207 1 21.0627 59.5325 -6.21154 0.00222238 1 
33208 1 21.8421 61.6571 -4.47311 0.0141054 1 
33209 1 23.8109 60.2907 -6.00231 0.0299759 1 
33210 1 24.5706 62.4652 -4.31287 0.0872713 1 
33211 1 23.7091 59.9134 -3.10858 0.259125 1 
33212 1 24.3967 62.0595 -1.48261 5.3559 5 
33213 1 26.4189 60.7071 -3.16901 0.386815 1 
33214 1 27.1737 62.8274 -1.35198 8.49767 5 
33215 1 26.3215 60.4146 -0.507543 9.87839 5 
33216 1 29.0786 61.1833 -0.155985 6.41803 5 
33756 1 40.0329 21.9806 -1.45704 3.02132 5 
33240 1 15.004 56.5862 -14.0706 3.91161e-05 1 
33242 1 17.7588 57.3479 -13.866 2.35073e-05 1 
33243 1 16.8779 54.8531 -12.7717 3.2944e-05 1 
33244 1 17.6502 56.991 -11.0259 0.000166887 1 
33245 1 19.6307 55.6153 -12.5661 3.85695e-05 1 
33246 1 20.4017 57.7535 -10.8181 0.000110551 1 
33247 1 19.5206 55.2606 -9.72389 0.000120632 1 
33248 1 20.2921 57.3994 -7.97048 0.000291425 1 
33249 1 22.2698 56.0232 -9.51722 0.000602248 1 
33250 1 23.0391 58.1592 -7.76117 0.00240869 1 
33251 1 22.1571 55.6719 -6.66235 0.00352652 1 
33252 1 22.921 57.8095 -4.89368 0.0188927 1 
33253 1 24.9032 56.4233 -6.47399 0.00327901 1 
33254 1 25.6739 58.5418 -4.74669 0.0519894 1 
33255 1 24.7796 56.0639 -3.63698 1.57657 5 
33256 1 25.5495 58.1048 -1.83875 5.31761 5 
33257 1 27.5243 56.7899 -3.4522 0.129616 1 
33258 1 28.2893 58.9558 -1.91594 0.509499 1 
33259 1 27.4645 56.2581 -0.571071 10.041 5 
33260 1 30.1965 57.437 -0.549346 4.58578 5 
33286 1 16.1062 52.7154 -14.5155 1.38972e-05 1 
33288 1 18.8598 53.4768 -14.3112 1.38103e-05 1 
33289 1 17.9793 50.9817 -13.2157 2.87307e-05 1 
33290 1 18.7503 53.1201 -11.4708 5.50499e-05 1 
33291 1 20.7313 51.7432 -13.0124 5.17023e-05 1 
33292 1 21.5006 53.8832 -11.2679 0.000173046 1 
33293 1 20.6207 51.3862 -10.1697 0.000292333 1 
33294 1 21.388 53.5301 -8.4257 0.00112066 1 
33295 1 23.3696 52.1504 -9.9775 0.000684415 1 
33296 1 24.1363 54.2935 -8.22922 0.00135409 1 
33297 1 23.2523 51.7977 -7.14524 0.00767881 1 
33298 1 24.0165 53.9378 -5.3826 0.0144843 1 
33299 1 26.0091 52.5658 -6.96267 0.00598183 1 
33300 1 26.7818 54.6912 -5.20737 0.0135174 1 
33301 1 25.8876 52.219 -4.15414 0.0598511 1 
33302 1 26.6321 54.3211 -2.34971 6.24927 5 
33303 1 28.6473 52.9868 -3.87324 0.138971 1 
33304 1 29.4711 55.1093 -2.21261 0.768689 5 
33305 1 28.5094 52.8008 -0.816899 5.86927 5 
33306 1 31.4234 53.2446 -0.916285 6.58627 5 
33334 1 17.2079 48.8442 -14.9606 1.12533e-05 1 
33336 1 19.9609 49.6053 -14.7568 2.08542e-05 1 
33337 1 19.0799 47.111 -13.6611 3.09218e-05 1 
33338 1 19.8507 49.2483 -11.9147 0.000102567 1 
33339 1 21.8321 47.8718 -13.4591 6.60363e-05 1 
33340 1 22.6016 50.0092 -11.7154 0.000243227 1 
33341 1 21.72 47.5155 -10.6149 0.000419692 1 
33342 1 22.4883 49.6509 -8.86885 0.00272475 1 
33343 1 24.4725 48.2747 -10.4258 0.000497224 1 
33344 1 25.2416 50.4164 -8.69936 0.00303853 1 
33345 1 24.356 47.914 -7.58904 0.00517591 1 
33346 1 25.1238 50.0659 -5.90122 0.0376506 1 
33347 1 27.1196 48.6796 -7.41718 0.00468821 1 
33348 1 27.887 50.8391 -5.68527 0.00983882 1 
33349 1 27.0092 48.3344 -4.62735 0.0487629 1 
33350 1 27.7641 50.5313 -2.88625 0.159851 1 
33351 1 29.763 49.111 -4.39524 0.0134668 1 
33352 1 30.4852 51.2807 -2.61019 0.3104 1 
33353 1 29.6247 48.8478 -1.59486 0.27256 1 
33354 1 32.4294 49.5755 -1.30417 5.27319 5 
33386 1 20.1804 43.2399 -14.1087 3.06229e-05 1 
33387 1 20.9504 45.3785 -12.3628 0.000109946 1 
33388 1 22.9335 44.0006 -13.9088 3.67173e-05 1 
33389 1 23.7032 46.1382 -12.1651 0.000114052 1 
33390 1 22.8203 43.6464 -11.07 0.00020918 1 
33391 1 23.5887 45.7826 -9.32341 0.000697232 1 
33392 1 25.5764 44.4049 -10.8742 0.000264673 1 
33393 1 26.3468 46.5399 -9.13634 0.000739407 1 
33394 1 25.4625 44.052 -8.03954 0.00176584 1 
33395 1 26.2314 46.1802 -6.30114 0.00781188 1 
33396 1 28.2236 44.8051 -7.84136 0.000923196 1 
33397 1 29.0007 46.9422 -6.12129 0.00861465 1 
33398 1 28.111 44.4533 -5.01096 0.012112 1 
33399 1 28.8905 46.6072 -3.32835 0.103634 1 
33400 1 30.8781 45.2048 -4.7716 0.0440149 1 
33401 1 31.6252 47.3799 -3.08277 0.102368 1 
33402 1 30.7587 44.8675 -1.84561 5.66806 5 
33403 1 31.4268 47.2567 -0.257929 8.1975 5 