ITEM: TIMESTEP
0
ITEM: NUMBER OF ATOMS
3616
ITEM: BOX BOUNDS xy xz yz pp pp ss
0.0000000000000000e+00 4.4479139449000002e+01 3.1770813890000000e+00
0.0000000000000000e+00 4.8833094862000003e+01 0.0000000000000000e+00
-1.0944440252642937e+02 1.1560830464840561e+02 0.0000000000000000e+00
ITEM: ATOMS id type x y z c_csym c_cna 
7916 1 3.97012 1.42691 -14.3763 5.23364e-05 1 
7917 1 6.74953 0.740979 -14.4428 5.80923e-05 1 
7919 1 1.19067 2.11286 -14.3098 5.46128e-05 1 
8559 1 24.6211 1.42691 -14.3763 5.23364e-05 1 
8560 1 27.4006 0.740979 -14.4428 5.80923e-05 1 
8595 1 19.0622 2.79822 -14.2427 5.47939e-05 1 
8596 1 21.8417 2.11286 -14.3098 5.46128e-05 1 
8622 1 13.5033 4.16932 -14.1072 5.06361e-05 1 
8623 1 16.2827 3.48358 -14.1749 4.88683e-05 1 
8624 1 14.2956 1.42691 -14.3763 5.23364e-05 1 
8625 1 17.075 0.740979 -14.4428 5.80923e-05 1 
8626 1 15.8837 1.65982 -12.0099 0.000146874 1 
8627 1 18.663 0.974109 -12.0776 0.000152916 1 
8643 1 7.94461 5.53915 -13.9714 5.37431e-05 1 
8644 1 10.7239 4.85455 -14.0393 5.45909e-05 1 
8645 1 8.73665 2.79822 -14.2427 5.47938e-05 1 
8646 1 11.5162 2.11286 -14.3098 5.46128e-05 1 
8647 1 10.3256 3.03312 -11.8751 0.000140666 1 
8648 1 13.1047 2.34684 -11.9428 0.000130606 1 
8655 1 2.38512 6.90913 -13.8347 7.06902e-05 1 
8656 1 5.16498 6.22407 -13.9032 5.44182e-05 1 
8657 1 3.17775 4.16932 -14.1072 5.0636e-05 1 
8658 1 5.95717 3.48358 -14.1749 4.88682e-05 1 
8659 1 4.76765 4.40395 -11.7375 0.000121716 1 
8660 1 7.54675 3.71805 -11.8065 0.000137099 1 
8661 1 5.55814 1.65982 -12.0099 0.000146874 1 
8662 1 8.33747 0.974109 -12.0776 0.000152916 1 
8663 1 7.14654 1.8932 -9.64706 0.000443821 1 
8664 1 9.92556 1.20854 -9.71535 0.000386589 1 
8665 1 40.9077 7.59326 -13.7667 7.26339e-05 1 
8666 1 0.398378 4.85455 -14.0393 5.45908e-05 1 
8667 1 1.98813 5.09026 -11.6682 0.000149053 1 
8668 1 41.3021 3.03312 -11.8751 0.000140666 1 
8669 1 2.77918 2.34684 -11.9428 0.000130606 1 
8670 1 1.58907 3.26871 -9.5092 0.000375615 1 
8671 1 4.36777 2.58039 -9.57806 0.000394883 1 
8672 1 3.96368 0.749797 -7.42083 0.00215187 1 
8673 1 40.9021 1.20854 -9.71535 0.000386588 1 
8674 1 1.18636 1.44192 -7.35487 0.0013292 1 
9107 1 39.7132 2.79822 -14.2427 5.47939e-05 1 
9167 1 34.1543 4.16932 -14.1072 5.06361e-05 1 
9168 1 36.9337 3.48358 -14.1749 4.88683e-05 1 
9169 1 34.9467 1.42691 -14.3763 5.23364e-05 1 
9170 1 37.7261 0.740979 -14.4428 5.80923e-05 1 
9171 1 36.5347 1.65982 -12.0099 0.000146874 1 
9172 1 39.314 0.974109 -12.0776 0.000152916 1 
9223 1 28.5956 5.53915 -13.9714 5.37431e-05 1 
9224 1 31.3749 4.85455 -14.0393 5.45909e-05 1 
9225 1 29.3877 2.79822 -14.2427 5.47939e-05 1 
9226 1 32.1672 2.11286 -14.3098 5.46128e-05 1 
9227 1 30.9766 3.03312 -11.8751 0.000140666 1 
9228 1 33.7557 2.34684 -11.9428 0.000130606 1 
9270 1 23.0361 6.90913 -13.8347 7.06903e-05 1 
9271 1 25.816 6.22407 -13.9032 5.44182e-05 1 
9272 1 23.8288 4.16932 -14.1072 5.0636e-05 1 
9273 1 26.6082 3.48358 -14.1749 4.88682e-05 1 
9274 1 25.4187 4.40395 -11.7375 0.000121716 1 
9275 1 28.1978 3.71805 -11.8065 0.000137099 1 
9276 1 26.2092 1.65982 -12.0099 0.000146874 1 
9277 1 28.9885 0.974109 -12.0776 0.000152916 1 
9278 1 27.7976 1.8932 -9.64706 0.000443821 1 
9279 1 30.5766 1.20854 -9.71535 0.000386589 1 
9311 1 17.4774 8.27704 -13.6995 7.52151e-05 1 
9312 1 20.2567 7.59326 -13.7667 7.26339e-05 1 
9313 1 18.2701 5.53915 -13.9714 5.37431e-05 1 
9314 1 21.0494 4.85455 -14.0393 5.45908e-05 1 
9315 1 19.8605 5.77465 -11.5986 0.000157188 1 
9316 1 22.6392 5.09026 -11.6682 0.000149053 1 
9317 1 20.6511 3.03312 -11.8751 0.000140666 1 
9318 1 23.4302 2.34684 -11.9428 0.000130606 1 
9319 1 22.2401 3.26871 -9.5092 0.000375615 1 
9320 1 25.0188 2.58039 -9.57806 0.000394883 1 
9321 1 24.6147 0.749797 -7.42083 0.00215187 1 
9344 1 11.9167 9.64559 -13.5637 0.000105585 1 
9345 1 14.6972 8.96135 -13.6319 7.5298e-05 1 
9346 1 12.7106 6.90913 -13.8347 7.06903e-05 1 
9347 1 15.4905 6.22407 -13.9032 5.44182e-05 1 
9348 1 14.3018 7.14408 -11.461 0.000178415 1 
9349 1 17.0822 6.45847 -11.5302 0.000167302 1 
9350 1 15.0932 4.40395 -11.7375 0.000121716 1 
9351 1 17.8723 3.71805 -11.8065 0.000137099 1 
9352 1 16.6861 4.63838 -9.36803 0.000477732 1 
9353 1 19.4622 3.95439 -9.43768 0.000487664 1 
9354 1 17.4721 1.8932 -9.64706 0.000443821 1 
9355 1 20.2511 1.20854 -9.71535 0.000386588 1 
9356 1 19.0608 2.1294 -7.28771 0.00146756 1 
9357 1 21.8374 1.44192 -7.35487 0.0013292 1 
9371 1 6.35745 11.0124 -13.4315 9.32125e-05 1 
9372 1 9.13697 10.3289 -13.4968 9.66768e-05 1 
9373 1 7.1519 8.27704 -13.6995 7.52151e-05 1 
9374 1 9.9312 7.59326 -13.7667 7.2634e-05 1 
9375 1 8.74259 8.51153 -11.3214 0.000249105 1 
9376 1 11.5209 7.82909 -11.3904 0.000244888 1 
9377 1 9.53495 5.77465 -11.5986 0.000157189 1 
9378 1 12.3136 5.09026 -11.6682 0.000149053 1 
9379 1 11.1256 6.01204 -9.22445 0.000628656 1 
9380 1 13.9054 5.32618 -9.29809 0.000476869 1 
9381 1 11.9146 3.26871 -9.5092 0.000375616 1 
9382 1 14.6933 2.58039 -9.57806 0.000394883 1 
9383 1 13.5026 3.50444 -7.14701 0.00155895 1 
9384 1 16.2842 2.81346 -7.21849 0.00165489 1 
9385 1 14.2892 0.749797 -7.42083 0.00215187 1 
9386 1 15.8756 0.975409 -5.07887 0.0100319 1 
9390 1 42.0975 12.3798 -13.2983 0.000104182 1 
9391 1 3.57662 11.6961 -13.3655 6.75346e-05 1 
9392 1 1.59116 9.64559 -13.5637 0.000105585 1 
9393 1 4.37168 8.96135 -13.6319 7.5298e-05 1 
9394 1 3.18257 9.87953 -11.1876 0.000315979 1 
9395 1 5.96442 9.19479 -11.256 0.000344396 1 
9396 1 3.97627 7.14408 -11.461 0.000178414 1 
9397 1 6.75673 6.45847 -11.5302 0.000167302 1 
9398 1 5.57418 7.37691 -9.08789 0.00109675 1 
9399 1 8.35025 6.69341 -9.15181 0.000628433 1 
9400 1 6.36055 4.63838 -9.36803 0.000477732 1 
9401 1 9.13673 3.95439 -9.43768 0.000487664 1 
9402 1 7.95568 4.87488 -6.98958 0.00220961 1 
9403 1 10.7272 4.19103 -7.07048 0.0022619 1 
9404 1 8.73528 2.1294 -7.28771 0.00146756 1 
9405 1 11.5119 1.44192 -7.35487 0.0013292 1 
9406 1 10.3186 2.36066 -4.92797 0.012757 1 
9407 1 13.0902 1.67169 -5.00557 0.0123901 1 
9408 1 41.7016 10.5632 -11.1172 0.000416962 1 
9409 1 1.19534 7.82909 -11.3904 0.000244887 1 
9410 1 41.3066 8.7484 -8.93813 0.00152146 1 
9411 1 2.78686 8.06539 -9.01644 0.00143431 1 
9412 1 0.800099 6.01204 -9.22445 0.000628656 1 
9413 1 3.57989 5.32618 -9.29809 0.000476868 1 
9414 1 2.39306 6.25046 -6.85276 0.00430704 1 
9415 1 5.18029 5.55834 -6.92963 0.00316173 1 
9416 1 3.1771 3.50444 -7.14701 0.00155895 1 
9417 1 5.95865 2.81346 -7.21849 0.00165489 1 
9418 1 4.76876 3.73495 -4.79771 0.00832836 1 
9419 1 7.55427 3.05039 -4.85705 0.0072504 1 
9420 1 5.55007 0.975409 -5.07887 0.0100319 1 
9421 1 7.15256 1.21555 -2.75239 0.0484574 1 
9422 1 9.93449 0.537959 -2.7394 0.0534968 1 
9423 1 40.9199 6.9296 -6.76614 0.00326126 1 
9424 1 0.401677 4.19103 -7.07048 0.0022619 1 
9425 1 1.98502 4.43288 -4.70489 0.0263504 1 
9426 1 41.2951 2.36066 -4.92797 0.012757 1 
9427 1 2.76464 1.67169 -5.00557 0.0123901 1 
9428 1 1.54237 2.59569 -2.59141 0.216642 1 
9429 1 4.33547 1.88329 -2.69566 0.0641527 1 
9430 1 40.911 0.537959 -2.7394 0.0534967 1 
9431 1 1.16261 0.817391 -0.231632 1.56457 5 
9803 1 38.1284 8.27704 -13.6995 7.52151e-05 1 
9804 1 38.9212 5.53915 -13.9714 5.37431e-05 1 
9805 1 40.5115 5.77465 -11.5986 0.000157188 1 
9863 1 32.5677 9.64559 -13.5637 0.000105585 1 
9864 1 35.3482 8.96135 -13.6319 7.5298e-05 1 
9865 1 33.3617 6.90913 -13.8347 7.06903e-05 1 
9866 1 36.1415 6.22407 -13.9032 5.44182e-05 1 
9867 1 34.9528 7.14408 -11.461 0.000178415 1 
9868 1 37.7333 6.45847 -11.5302 0.000167302 1 
9869 1 35.7442 4.40395 -11.7375 0.000121716 1 
9870 1 38.5233 3.71805 -11.8065 0.000137099 1 
9871 1 37.3371 4.63838 -9.36803 0.000477732 1 
9872 1 40.1133 3.95439 -9.43768 0.000487664 1 
9873 1 38.1231 1.8932 -9.64706 0.000443821 1 
9874 1 39.7118 2.1294 -7.28771 0.00146756 1 
9922 1 27.0085 11.0124 -13.4315 9.32125e-05 1 
9923 1 29.788 10.3289 -13.4968 9.66768e-05 1 
9924 1 27.8029 8.27704 -13.6995 7.52151e-05 1 
9925 1 30.5822 7.59326 -13.7667 7.2634e-05 1 
9926 1 29.3936 8.51153 -11.3214 0.000249105 1 
9927 1 32.1719 7.82909 -11.3904 0.000244888 1 
9928 1 30.186 5.77465 -11.5986 0.000157188 1 
9929 1 32.9647 5.09026 -11.6682 0.000149053 1 
9930 1 31.7766 6.01204 -9.22445 0.000628656 1 
9931 1 34.5564 5.32618 -9.29809 0.000476869 1 
9932 1 32.5656 3.26871 -9.5092 0.000375615 1 
9933 1 35.3443 2.58039 -9.57806 0.000394883 1 
9934 1 34.1536 3.50444 -7.14701 0.00155895 1 
9935 1 36.9352 2.81346 -7.21849 0.00165489 1 
9936 1 34.9402 0.749797 -7.42083 0.00215187 1 
9937 1 36.5266 0.975409 -5.07887 0.0100319 1 
9976 1 21.4464 12.3798 -13.2983 0.000104182 1 
9977 1 24.2277 11.6961 -13.3655 6.75346e-05 1 
9978 1 22.2422 9.64559 -13.5637 0.000105585 1 
9979 1 25.0227 8.96135 -13.6319 7.5298e-05 1 
9980 1 23.8336 9.87953 -11.1876 0.000315979 1 
9981 1 26.6154 9.19479 -11.256 0.000344396 1 
9982 1 24.6273 7.14408 -11.461 0.000178414 1 
9983 1 27.4078 6.45847 -11.5302 0.000167302 1 
9984 1 26.2252 7.37691 -9.08789 0.00109675 1 
9985 1 29.0013 6.69341 -9.15181 0.000628433 1 
9986 1 27.0116 4.63838 -9.36803 0.000477732 1 
9987 1 29.7878 3.95439 -9.43768 0.000487664 1 
9988 1 28.6067 4.87488 -6.98958 0.00220961 1 
9989 1 31.3782 4.19103 -7.07048 0.0022619 1 
9990 1 29.3863 2.1294 -7.28771 0.00146756 1 
9991 1 32.1629 1.44192 -7.35487 0.0013292 1 
9992 1 30.9696 2.36066 -4.92797 0.012757 1 
9993 1 33.7412 1.67169 -5.00557 0.0123901 1 
10023 1 15.8867 13.7468 -13.1696 8.22225e-05 1 
10024 1 18.6664 13.0631 -13.233 9.28484e-05 1 
10025 1 16.683 11.0124 -13.4315 9.32126e-05 1 
10026 1 19.4625 10.3289 -13.4968 9.66768e-05 1 
10027 1 18.2725 11.2451 -11.0508 0.000376279 1 
10028 1 21.0506 10.5632 -11.1172 0.000416962 1 
10029 1 19.0681 8.51153 -11.3214 0.000249105 1 
10030 1 21.8464 7.82909 -11.3904 0.000244887 1 
10031 1 20.6556 8.7484 -8.93813 0.00152146 1 
10032 1 23.4379 8.06539 -9.01644 0.00143431 1 
10033 1 21.4511 6.01204 -9.22445 0.000628656 1 
10034 1 24.2309 5.32618 -9.29809 0.000476868 1 
10035 1 23.0441 6.25046 -6.85276 0.00430704 1 
10036 1 25.8313 5.55834 -6.92963 0.00316173 1 
10037 1 23.8281 3.50444 -7.14701 0.00155895 1 
10038 1 26.6097 2.81346 -7.21849 0.00165489 1 
10039 1 25.4198 3.73495 -4.79771 0.00832836 1 
10040 1 28.2053 3.05039 -4.85705 0.00725041 1 
10041 1 26.2011 0.975409 -5.07887 0.0100319 1 
10042 1 27.8036 1.21555 -2.75239 0.0484575 1 
10043 1 30.5855 0.537959 -2.7394 0.0534967 1 
10063 1 10.3241 15.114 -13.0395 9.37288e-05 1 
10064 1 13.1056 14.4304 -13.1055 5.05178e-05 1 
10065 1 11.1209 12.3798 -13.2983 0.000104182 1 
10066 1 13.9021 11.6961 -13.3655 6.75347e-05 1 
10067 1 12.7111 12.612 -10.9234 0.000288519 1 
10068 1 15.494 11.9284 -10.9891 0.000451904 1 
10069 1 13.5081 9.87953 -11.1876 0.000315979 1 
10070 1 16.2899 9.19479 -11.256 0.000344396 1 
10071 1 15.1097 10.1122 -8.81283 0.00378884 1 
10072 1 17.8836 9.42797 -8.87016 0.00187886 1 
10073 1 15.8997 7.37691 -9.08789 0.00109675 1 
10074 1 18.6758 6.69341 -9.15181 0.000628433 1 
10075 1 17.5048 7.60697 -6.69854 0.00496069 1 
10076 1 20.2688 6.9296 -6.76614 0.00326127 1 
10077 1 18.2812 4.87488 -6.98958 0.00220962 1 
10078 1 21.0527 4.19103 -7.07048 0.0022619 1 
10079 1 19.8887 5.1034 -4.60613 0.0164097 1 
10080 1 22.636 4.43288 -4.70489 0.0263504 1 
10081 1 20.6441 2.36066 -4.92797 0.012757 1 
10082 1 23.4157 1.67169 -5.00557 0.0123901 1 
10083 1 22.1934 2.59569 -2.59141 0.216643 1 
10084 1 24.9865 1.88329 -2.69566 0.0641527 1 
10095 1 4.76433 16.4822 -12.9131 6.54187e-05 1 
10096 1 7.54402 15.7978 -12.9752 8.2491e-05 1 
10097 1 5.56123 13.7468 -13.1696 8.22225e-05 1 
10098 1 8.34093 13.0631 -13.233 9.28482e-05 1 
10099 1 7.14863 13.9776 -10.7898 0.000406351 1 
10100 1 9.92676 13.2948 -10.854 0.000552186 1 
10101 1 7.94698 11.2451 -11.0508 0.000376279 1 
10102 1 10.7251 10.5632 -11.1172 0.000416962 1 
10103 1 9.52945 11.4796 -8.66218 0.00316902 1 
10104 1 12.3145 10.7977 -8.74352 0.00253251 1 
10105 1 10.33 8.7484 -8.93813 0.00152147 1 
10106 1 13.1124 8.06539 -9.01644 0.00143431 1 
10107 1 11.9115 8.9867 -6.56392 0.0196065 1 
10108 1 14.7236 8.29314 -6.65959 0.0111646 1 
10109 1 12.7186 6.25046 -6.85276 0.00430704 1 
10110 1 15.5058 5.55834 -6.92963 0.00316173 1 
10111 1 14.3322 6.47935 -4.49706 0.0303257 1 
10112 1 17.1051 5.78948 -4.53207 0.0223763 1 
10113 1 15.0943 3.73495 -4.79771 0.00832836 1 
10114 1 17.8798 3.05039 -4.85705 0.00725041 1 
10115 1 16.6832 3.9542 -2.44343 0.066333 1 
10116 1 19.4858 3.2595 -2.46767 0.0614395 1 
10117 1 17.4781 1.21555 -2.75239 0.0484575 1 
10118 1 20.26 0.537959 -2.7394 0.0534967 1 
10119 1 19.0701 1.43969 -0.314838 0.408107 1 
10120 1 21.8136 0.81739 -0.231632 1.56457 5 
10121 1 40.9024 19.6743 -14.9636 3.64323e-05 1 
10123 1 1.98323 17.1663 -12.8501 5.53976e-05 1 
10124 1 41.3006 15.114 -13.0395 9.37288e-05 1 
10125 1 2.78004 14.4304 -13.1055 5.05179e-05 1 
10126 1 1.58681 15.3447 -10.668 0.000252351 1 
10127 1 4.36967 14.6617 -10.7313 0.00042218 1 
10128 1 2.38558 12.612 -10.9234 0.000288519 1 
10129 1 5.16845 11.9284 -10.9891 0.000451904 1 
10130 1 3.9852 12.8451 -8.54978 0.00515305 1 
10131 1 6.75899 12.1599 -8.6003 0.00310453 1 
10132 1 4.78422 10.1122 -8.81283 0.00378884 1 
10133 1 7.55813 9.42797 -8.87016 0.00187886 1 
10134 1 6.39581 10.3439 -6.40781 0.0269675 1 
10135 1 9.1423 9.66434 -6.46489 0.0153058 1 
10136 1 7.17928 7.60697 -6.69854 0.00496069 1 
10137 1 9.94332 6.9296 -6.76614 0.00326126 1 
10138 1 8.78765 7.83788 -4.28385 0.0378874 1 
10139 1 11.5355 7.16496 -4.37861 0.0450744 1 
10140 1 9.56317 5.1034 -4.60613 0.0164096 1 
10141 1 12.3105 4.43288 -4.70489 0.0263504 1 
10142 1 11.1629 5.33209 -2.14955 0.191899 1 
10143 1 13.8941 4.66243 -2.38796 0.172045 1 
10144 1 11.8679 2.59569 -2.59141 0.216643 1 
10145 1 14.661 1.88329 -2.69566 0.0641527 1 
10146 1 13.3859 2.80695 -0.34989 8.2945 5 
10147 1 16.2481 2.08617 -0.424769 0.38094 1 
10148 1 40.9033 13.2948 -10.854 0.000552186 1 
10149 1 1.18759 13.5268 -8.48501 0.00290418 1 
10150 1 1.98901 10.7977 -8.74352 0.00253251 1 
10151 1 0.778036 11.7165 -6.29134 0.0283965 1 
10152 1 3.60408 11.028 -6.3981 0.0256469 1 
10153 1 1.58596 8.9867 -6.56392 0.0196065 1 
10154 1 4.39813 8.29314 -6.65959 0.0111646 1 
10155 1 3.21682 9.19809 -4.27339 0.0920629 1 
10156 1 6.02064 8.50742 -4.27476 0.0624007 1 
10157 1 4.00667 6.47935 -4.49706 0.0303257 1 
10158 1 6.77957 5.78948 -4.53207 0.0223762 1 
10159 1 5.61097 6.72995 -2.05882 5.19781 5 
10160 1 8.41499 5.95125 -2.16827 0.205441 1 
10161 1 6.3577 3.9542 -2.44343 0.0663322 1 
10162 1 9.1603 3.2595 -2.46767 0.0614389 1 
10163 1 7.95019 4.02422 -0.0539782 1.8259 5 
10164 1 10.757 3.5004 0.03224 2.67875 5 
10165 1 8.74457 1.43969 -0.314838 0.408109 1 
10166 1 11.4881 0.81739 -0.231632 1.56457 5 
10167 1 41.6872 9.90845 -4.06601 0.285999 1 
10168 1 1.21002 7.16496 -4.37861 0.0450744 1 
10169 1 41.3622 8.02188 -1.82919 1.84386 5 
10170 1 2.8386 7.35205 -2.07129 6.293 5 
10171 1 0.837407 5.33209 -2.14955 0.191899 1 
10172 1 3.56861 4.66243 -2.38796 0.172045 1 
10173 1 5.03579 4.83988 -0.081407 7.7093 5 
10174 1 3.06043 2.80695 -0.34989 8.2945 5 
10175 1 5.92256 2.08617 -0.424769 0.380939 1 
10176 1 0.431467 3.5004 0.0322399 2.67875 5 
10487 1 36.5378 13.7468 -13.1696 8.22224e-05 1 
10488 1 39.3175 13.0631 -13.233 9.28483e-05 1 
10489 1 37.334 11.0124 -13.4315 9.32127e-05 1 
10490 1 40.1135 10.3289 -13.4968 9.66768e-05 1 
10491 1 38.9235 11.2451 -11.0508 0.000376279 1 
10492 1 39.7191 8.51153 -11.3214 0.000249105 1 
10546 1 30.9751 15.114 -13.0395 9.37288e-05 1 
10547 1 33.7566 14.4304 -13.1055 5.05178e-05 1 
10548 1 31.772 12.3798 -13.2983 0.000104182 1 
10549 1 34.5532 11.6961 -13.3655 6.75347e-05 1 
10550 1 33.3621 12.612 -10.9234 0.000288519 1 
10551 1 36.145 11.9284 -10.9891 0.000451904 1 
10552 1 34.1591 9.87953 -11.1876 0.000315979 1 
10553 1 36.941 9.19479 -11.256 0.000344396 1 
10554 1 35.7608 10.1122 -8.81283 0.00378884 1 
10555 1 38.5347 9.42797 -8.87016 0.00187886 1 
10556 1 36.5507 7.37691 -9.08789 0.00109675 1 
10557 1 39.3268 6.69341 -9.15181 0.000628433 1 
10558 1 38.1558 7.60697 -6.69854 0.00496069 1 
10559 1 38.9322 4.87488 -6.98958 0.00220962 1 
10560 1 40.5397 5.1034 -4.60613 0.0164097 1 
10606 1 25.4154 16.4822 -12.9131 6.54187e-05 1 
10607 1 28.195 15.7978 -12.9752 8.2491e-05 1 
10608 1 26.2123 13.7468 -13.1696 8.22225e-05 1 
10609 1 28.992 13.0631 -13.233 9.28482e-05 1 
10610 1 27.7997 13.9776 -10.7898 0.000406351 1 
10611 1 30.5778 13.2948 -10.854 0.000552186 1 
10612 1 28.598 11.2451 -11.0508 0.000376279 1 
10613 1 31.3761 10.5632 -11.1172 0.000416962 1 
10614 1 30.1805 11.4796 -8.66218 0.00316902 1 
10615 1 32.9656 10.7977 -8.74352 0.00253251 1 
10616 1 30.9811 8.7484 -8.93813 0.00152147 1 
10617 1 33.7634 8.06539 -9.01644 0.00143431 1 
10618 1 32.5625 8.9867 -6.56392 0.0196065 1 
10619 1 35.3747 8.29314 -6.65959 0.0111646 1 
10620 1 33.3696 6.25046 -6.85276 0.00430704 1 
10621 1 36.1568 5.55834 -6.92963 0.00316173 1 
10622 1 34.9832 6.47935 -4.49706 0.0303257 1 
10623 1 37.7561 5.78948 -4.53207 0.0223763 1 
10624 1 35.7453 3.73495 -4.79771 0.00832836 1 
10625 1 38.5308 3.05039 -4.85705 0.00725041 1 
10626 1 37.3342 3.9542 -2.44343 0.0663328 1 
10627 1 40.1368 3.2595 -2.46767 0.0614393 1 
10628 1 38.1291 1.21555 -2.75239 0.0484575 1 
10629 1 39.7211 1.43969 -0.314838 0.408108 1 
10661 1 17.4714 20.3593 -14.8989 3.52933e-05 1 
10662 1 20.2513 19.6743 -14.9636 3.64324e-05 1 
10665 1 19.8529 17.8501 -12.7847 0.000100699 1 
10666 1 22.6343 17.1663 -12.8501 5.53976e-05 1 
10667 1 20.6496 15.114 -13.0395 9.37288e-05 1 
10668 1 23.4311 14.4304 -13.1055 5.05179e-05 1 
10669 1 22.2378 15.3447 -10.668 0.000252351 1 
10670 1 25.0207 14.6617 -10.7313 0.00042218 1 
10671 1 23.0366 12.612 -10.9234 0.000288519 1 
10672 1 25.8195 11.9284 -10.9891 0.000451904 1 
10673 1 24.6362 12.8451 -8.54978 0.00515305 1 
10674 1 27.41 12.1599 -8.6003 0.00310453 1 
10675 1 25.4353 10.1122 -8.81283 0.00378884 1 
10676 1 28.2092 9.42797 -8.87016 0.00187886 1 
10677 1 27.0468 10.3439 -6.40781 0.0269675 1 
10678 1 29.7933 9.66434 -6.46489 0.0153058 1 
10679 1 27.8303 7.60697 -6.69854 0.00496069 1 
10680 1 30.5944 6.9296 -6.76614 0.00326126 1 
10681 1 29.4387 7.83788 -4.28385 0.0378874 1 
10682 1 32.1866 7.16496 -4.37861 0.0450744 1 
10683 1 30.2142 5.1034 -4.60613 0.0164097 1 
10684 1 32.9616 4.43288 -4.70489 0.0263504 1 
10685 1 31.814 5.33209 -2.14955 0.191899 1 
10686 1 34.5452 4.66243 -2.38796 0.172045 1 
10687 1 32.5189 2.59569 -2.59141 0.216643 1 
10688 1 35.312 1.88329 -2.69566 0.0641527 1 
10689 1 34.037 2.80695 -0.34989 8.2945 5 
10690 1 36.8991 2.08617 -0.424769 0.38094 1 
10713 1 11.9116 21.7299 -14.7706 4.08596e-05 1 
10714 1 14.6917 21.0447 -14.8349 3.31281e-05 1 
10717 1 14.2937 19.2202 -12.6589 6.79619e-05 1 
10718 1 17.0731 18.5349 -12.7207 7.81113e-05 1 
10719 1 15.0898 16.4822 -12.9131 6.54186e-05 1 
10720 1 17.8695 15.7978 -12.9752 8.24909e-05 1 
10721 1 16.6754 16.7119 -10.5368 0.000324944 1 
10722 1 19.4535 16.0271 -10.5996 0.000609059 1 
10723 1 17.4741 13.9776 -10.7898 0.00040635 1 
10724 1 20.2523 13.2948 -10.854 0.000552186 1 
10725 1 19.0516 14.2076 -8.40221 0.00426523 1 
10726 1 21.8386 13.5268 -8.48501 0.00290418 1 
10727 1 19.855 11.4796 -8.66218 0.00316901 1 
10728 1 22.64 10.7977 -8.74352 0.00253251 1 
10729 1 21.4291 11.7165 -6.29134 0.0283965 1 
10730 1 24.2551 11.028 -6.3981 0.0256469 1 
10731 1 22.237 8.9867 -6.56392 0.0196065 1 
10732 1 25.0492 8.29314 -6.65959 0.0111646 1 
10733 1 23.8678 9.19809 -4.27339 0.0920628 1 
10734 1 26.6717 8.50742 -4.27476 0.0624007 1 
10735 1 24.6577 6.47935 -4.49706 0.0303257 1 
10736 1 27.4306 5.78948 -4.53207 0.0223763 1 
10737 1 26.262 6.72995 -2.05882 5.1978 5 
10738 1 29.066 5.95125 -2.16827 0.20544 1 
10739 1 27.0087 3.9542 -2.44343 0.0663327 1 
10740 1 29.8113 3.2595 -2.46767 0.0614393 1 
10741 1 28.6012 4.02422 -0.0539784 1.82591 5 
10742 1 31.408 3.5004 0.0322399 2.67875 5 
10743 1 29.3956 1.43969 -0.314838 0.408108 1 
10744 1 32.1392 0.81739 -0.231632 1.56457 5 
10758 1 6.35175 23.1006 -14.6398 4.82198e-05 1 
10759 1 9.13139 22.415 -14.7052 5.08915e-05 1 
10760 1 7.14588 20.3593 -14.8989 3.52933e-05 1 
10761 1 9.92583 19.6743 -14.9636 3.64323e-05 1 
10762 1 8.73201 20.5893 -12.5306 0.000118921 1 
10763 1 11.5129 19.9049 -12.5961 7.38273e-05 1 
10764 1 9.52736 17.8501 -12.7847 0.000100699 1 
10765 1 12.3087 17.1663 -12.8501 5.53976e-05 1 
10766 1 11.1138 18.0801 -10.4178 0.000242217 1 
10767 1 13.8968 17.397 -10.4796 0.000390677 1 
10768 1 11.9123 15.3447 -10.668 0.000252351 1 
10769 1 14.6952 14.6617 -10.7313 0.000422179 1 
10770 1 13.5077 15.5779 -8.29755 0.00496471 1 
10771 1 16.2807 14.8918 -8.34518 0.00340905 1 
10772 1 14.3107 12.8451 -8.54978 0.00515304 1 
10773 1 17.0845 12.1599 -8.6003 0.00310453 1 
10774 1 15.9157 13.0788 -6.13932 0.0391486 1 
10775 1 18.6556 12.3906 -6.18236 0.0297404 1 
10776 1 16.7213 10.3439 -6.40781 0.0269674 1 
10777 1 19.4678 9.66434 -6.46489 0.0153058 1 
10778 1 18.3089 10.5676 -3.91387 0.217998 1 
10779 1 21.0361 9.90845 -4.06601 0.285999 1 
10780 1 19.1132 7.83788 -4.28385 0.0378874 1 
10781 1 21.861 7.16496 -4.37861 0.0450744 1 
10782 1 20.7111 8.02188 -1.82919 1.84386 5 
10783 1 23.4896 7.35205 -2.07129 6.293 5 
10784 1 21.4884 5.33209 -2.14955 0.191899 1 
10785 1 24.2196 4.66243 -2.38796 0.172045 1 
10786 1 25.6868 4.83988 -0.0814072 7.7093 5 
10787 1 23.7115 2.80695 -0.34989 8.2945 5 
10788 1 26.5736 2.08617 -0.424769 0.38094 1 
10792 1 42.0944 24.4721 -14.5094 5.76574e-05 1 
10793 1 3.57219 23.7865 -14.5749 4.93408e-05 1 
10794 1 1.58604 21.7299 -14.7706 4.08596e-05 1 
10795 1 4.36617 21.0447 -14.8349 3.31282e-05 1 
10796 1 3.17351 21.9613 -12.4039 8.49592e-05 1 
10797 1 5.95276 21.275 -12.4662 8.95934e-05 1 
10798 1 3.96823 19.2202 -12.6589 6.79616e-05 1 
10799 1 6.74761 18.5349 -12.7207 7.81114e-05 1 
10800 1 5.55333 19.4495 -10.2866 0.000280989 1 
10801 1 8.33081 18.7632 -10.3495 0.000555837 1 
10802 1 6.34984 16.7119 -10.5368 0.000324944 1 
10803 1 9.128 16.0271 -10.5996 0.000609059 1 
10804 1 7.92502 16.9384 -8.15629 0.00427795 1 
10805 1 10.7116 16.2559 -8.23616 0.0028742 1 
10806 1 8.72608 14.2076 -8.40221 0.00426523 1 
10807 1 11.5131 13.5268 -8.48501 0.00290418 1 
10808 1 10.292 14.4349 -6.04023 0.029858 1 
10809 1 13.1212 13.7588 -6.14353 0.0335662 1 
10810 1 11.1036 11.7165 -6.29134 0.0283965 1 
10811 1 13.9296 11.028 -6.3981 0.0256469 1 
10812 1 12.7413 11.9213 -4.02153 0.165742 1 
10813 1 15.5396 11.2628 -4.00798 0.0780011 1 
10814 1 13.5423 9.19809 -4.27339 0.0920628 1 
10815 1 16.3461 8.50742 -4.27476 0.0624007 1 
10816 1 15.2377 9.47793 -1.93439 6.4914 5 
10817 1 17.9859 8.67392 -1.81633 0.781752 5 
10818 1 15.9365 6.72995 -2.05882 5.19779 5 
10819 1 18.7405 5.95125 -2.16827 0.20544 1 
10820 1 18.2757 4.02422 -0.0539785 1.82591 5 
10821 1 21.0825 3.5004 0.0322399 2.67875 5 
10822 1 41.6951 22.6466 -12.34 0.000112544 1 
10823 1 42.4894 19.9049 -12.5961 7.38273e-05 1 
10824 1 41.2944 20.8198 -10.1676 0.000262169 1 
10825 1 2.7749 20.136 -10.2299 0.000305495 1 
10826 1 42.0903 18.0801 -10.4178 0.000242217 1 
10827 1 3.57128 17.397 -10.4796 0.000390677 1 
10828 1 2.37936 18.3136 -8.05408 0.0031408 1 
10829 1 5.15463 17.6264 -8.09825 0.0026881 1 
10830 1 3.18222 15.5779 -8.29755 0.00496471 1 
10831 1 5.95519 14.8918 -8.34518 0.00340905 1 
10832 1 4.77856 15.8128 -5.88856 0.0371343 1 
10833 1 7.51329 15.1191 -5.93425 0.0446735 1 
10834 1 5.59021 13.0788 -6.13932 0.0391486 1 
10835 1 8.33007 12.3906 -6.18236 0.0297404 1 
10836 1 7.1553 13.2997 -3.6122 0.337786 1 
10837 1 9.86559 12.6274 -3.77978 0.560884 1 
10838 1 7.98334 10.5676 -3.91387 0.217998 1 
10839 1 10.7106 9.90845 -4.06601 0.285999 1 
10840 1 9.68225 10.6852 -1.26536 3.53887 5 
10841 1 12.386 10.0519 -1.88575 7.47651 5 
10842 1 10.3856 8.02188 -1.82919 1.84386 5 
10843 1 13.1641 7.35205 -2.07129 6.29299 5 
10844 1 15.3613 4.83988 -0.0814073 7.7093 5 
10845 1 40.8903 18.9925 -7.99136 0.00200379 1 
10846 1 41.6882 16.2559 -8.23616 0.0028742 1 
10847 1 1.98812 16.4929 -5.89727 0.0316472 1 
10848 1 41.2685 14.4349 -6.04023 0.029858 1 
10849 1 2.79564 13.7588 -6.14353 0.0335662 1 
10850 1 1.59853 14.659 -3.78668 0.23028 1 
10851 1 4.38909 14.0067 -3.74428 0.0660983 1 
10852 1 2.41576 11.9213 -4.02153 0.165742 1 
10853 1 5.2141 11.2628 -4.00798 0.0780011 1 
10854 1 4.0664 12.2311 -1.64219 6.68247 2 
10855 1 6.86394 11.4514 -1.44569 2.63409 5 
10856 1 4.91218 9.47793 -1.93439 6.49139 5 
10857 1 7.66036 8.67392 -1.81633 0.781751 5 
10858 1 40.8421 12.6274 -3.77978 0.560884 1 
10859 1 1.22105 12.7906 -1.70154 8.33126 5 
10860 1 2.06048 10.0519 -1.88575 7.47651 5 
11061 1 38.1224 20.3593 -14.8989 3.52933e-05 1 
11063 1 40.5039 17.8501 -12.7847 0.000100699 1 
11110 1 32.5626 21.7299 -14.7706 4.08596e-05 1 
11111 1 35.3427 21.0447 -14.8349 3.31281e-05 1 
11114 1 34.9448 19.2202 -12.6589 6.79619e-05 1 
11115 1 37.7242 18.5349 -12.7207 7.81113e-05 1 
11116 1 35.7409 16.4822 -12.9131 6.54186e-05 1 
11117 1 38.5206 15.7978 -12.9752 8.24909e-05 1 
11118 1 37.3264 16.7119 -10.5368 0.000324944 1 
11119 1 40.1045 16.0271 -10.5996 0.000609059 1 
11120 1 38.1252 13.9776 -10.7898 0.00040635 1 
11121 1 39.7026 14.2076 -8.40221 0.00426523 1 
11122 1 40.506 11.4796 -8.66218 0.00316902 1 
11165 1 27.0028 23.1006 -14.6398 4.82198e-05 1 
11166 1 29.7824 22.415 -14.7052 5.08915e-05 1 
11167 1 27.7969 20.3593 -14.8989 3.52933e-05 1 
11168 1 30.5769 19.6743 -14.9636 3.64323e-05 1 
11169 1 29.383 20.5893 -12.5306 0.000118921 1 
11170 1 32.1639 19.9049 -12.5961 7.38273e-05 1 
11171 1 30.1784 17.8501 -12.7847 0.000100699 1 
11172 1 32.9598 17.1663 -12.8501 5.53976e-05 1 
11173 1 31.7648 18.0801 -10.4178 0.000242217 1 
11174 1 34.5478 17.397 -10.4796 0.000390677 1 
11175 1 32.5633 15.3447 -10.668 0.000252351 1 
11176 1 35.3462 14.6617 -10.7313 0.000422179 1 
11177 1 34.1588 15.5779 -8.29755 0.00496471 1 
11178 1 36.9317 14.8918 -8.34518 0.00340905 1 
11179 1 34.9617 12.8451 -8.54978 0.00515304 1 
11180 1 37.7355 12.1599 -8.6003 0.00310453 1 
11181 1 36.5668 13.0788 -6.13932 0.0391486 1 
11182 1 39.3066 12.3906 -6.18236 0.0297404 1 
11183 1 37.3724 10.3439 -6.40781 0.0269675 1 
11184 1 40.1188 9.66434 -6.46489 0.0153058 1 
11185 1 38.9599 10.5676 -3.91387 0.217998 1 
11186 1 39.7642 7.83788 -4.28385 0.0378874 1 
11225 1 21.4434 24.4721 -14.5094 5.76573e-05 1 
11226 1 24.2232 23.7865 -14.5749 4.93408e-05 1 
11227 1 22.2371 21.7299 -14.7706 4.08596e-05 1 
11228 1 25.0172 21.0447 -14.8349 3.31282e-05 1 
11229 1 23.8245 21.9613 -12.4039 8.49592e-05 1 
11230 1 26.6038 21.275 -12.4662 8.95934e-05 1 
11231 1 24.6193 19.2202 -12.6589 6.79616e-05 1 
11232 1 27.3986 18.5349 -12.7207 7.81114e-05 1 
11233 1 26.2044 19.4495 -10.2866 0.000280989 1 
11234 1 28.9818 18.7632 -10.3495 0.000555837 1 
11235 1 27.0009 16.7119 -10.5368 0.000324944 1 
11236 1 29.779 16.0271 -10.5996 0.000609059 1 
11237 1 28.5761 16.9384 -8.15629 0.00427795 1 
11238 1 31.3627 16.2559 -8.23616 0.0028742 1 
11239 1 29.3771 14.2076 -8.40221 0.00426523 1 
11240 1 32.1641 13.5268 -8.48501 0.00290418 1 
11241 1 30.943 14.4349 -6.04023 0.029858 1 
11242 1 33.7722 13.7588 -6.14353 0.0335662 1 
11243 1 31.7546 11.7165 -6.29134 0.0283965 1 
11244 1 34.5806 11.028 -6.3981 0.0256469 1 
11245 1 33.3923 11.9213 -4.02153 0.165742 1 
11246 1 36.1906 11.2628 -4.00798 0.0780011 1 
11247 1 34.1934 9.19809 -4.27339 0.0920628 1 
11248 1 36.9972 8.50742 -4.27476 0.0624007 1 
11249 1 35.8887 9.47793 -1.93439 6.4914 5 
11250 1 38.6369 8.67392 -1.81633 0.781752 5 
11251 1 36.5875 6.72995 -2.05882 5.1978 5 
11252 1 39.3915 5.95125 -2.16827 0.20544 1 
11253 1 38.9267 4.02422 -0.0539784 1.82591 5 
11283 1 15.8842 25.8435 -14.3763 5.23363e-05 1 
11284 1 18.6636 25.1575 -14.4428 5.80923e-05 1 
11285 1 16.6773 23.1006 -14.6398 4.82199e-05 1 
11286 1 19.4569 22.415 -14.7052 5.08915e-05 1 
11287 1 18.264 23.3316 -12.2736 0.000151388 1 
11288 1 21.0441 22.6466 -12.34 0.000112544 1 
11289 1 19.0575 20.5893 -12.5306 0.000118921 1 
11290 1 21.8384 19.9049 -12.5961 7.38273e-05 1 
11291 1 20.6434 20.8198 -10.1676 0.00026217 1 
11292 1 23.4259 20.136 -10.2299 0.000305495 1 
11293 1 21.4393 18.0801 -10.4178 0.000242217 1 
11294 1 24.2223 17.397 -10.4796 0.000390677 1 
11295 1 23.0304 18.3136 -8.05408 0.0031408 1 
11296 1 25.8057 17.6264 -8.09825 0.0026881 1 
11297 1 23.8333 15.5779 -8.29755 0.00496471 1 
11298 1 26.6062 14.8918 -8.34518 0.00340905 1 
11299 1 25.4296 15.8128 -5.88856 0.0371343 1 
11300 1 28.1643 15.1191 -5.93425 0.0446735 1 
11301 1 26.2412 13.0788 -6.13932 0.0391486 1 
11302 1 28.9811 12.3906 -6.18236 0.0297404 1 
11303 1 27.8063 13.2997 -3.6122 0.337786 1 
11304 1 30.5166 12.6274 -3.77978 0.560884 1 
11305 1 28.6344 10.5676 -3.91387 0.217998 1 
11306 1 31.3616 9.90845 -4.06601 0.285999 1 
11307 1 30.3333 10.6852 -1.26536 3.53887 5 
11308 1 33.037 10.0519 -1.88575 7.47651 5 
11309 1 31.0367 8.02188 -1.82919 1.84386 5 
11310 1 33.8151 7.35205 -2.07129 6.293 5 
11311 1 36.0123 4.83988 -0.0814072 7.7093 5 
11331 1 10.3252 27.2148 -14.2427 5.47939e-05 1 
11332 1 13.1047 26.5294 -14.3098 5.46128e-05 1 
11333 1 11.1178 24.4721 -14.5094 5.76573e-05 1 
11334 1 13.8977 23.7865 -14.5749 4.93409e-05 1 
11335 1 12.7058 24.7051 -12.144 0.00013298 1 
11336 1 15.485 24.0183 -12.2084 0.000123828 1 
11337 1 13.499 21.9613 -12.4039 8.49592e-05 1 
11338 1 16.2783 21.275 -12.4662 8.95933e-05 1 
11339 1 15.0849 22.1914 -10.0362 0.000235812 1 
11340 1 17.8623 21.5034 -10.0989 0.000484928 1 
11341 1 15.8788 19.4495 -10.2866 0.000280989 1 
11342 1 18.6563 18.7632 -10.3495 0.000555836 1 
11343 1 17.4556 19.6746 -7.91142 0.00329513 1 
11344 1 20.2392 18.9925 -7.99136 0.00200379 1 
11345 1 18.2505 16.9384 -8.15629 0.00427795 1 
11346 1 21.0372 16.2559 -8.23616 0.0028742 1 
11347 1 19.8173 17.1653 -5.80969 0.0239802 1 
11348 1 22.6391 16.4929 -5.89727 0.0316472 1 
11349 1 20.6175 14.4349 -6.04023 0.029858 1 
11350 1 23.4467 13.7588 -6.14353 0.0335662 1 
11351 1 22.2496 14.659 -3.78668 0.23028 1 
11352 1 25.0401 14.0067 -3.74428 0.0660983 1 
11353 1 23.0668 11.9213 -4.02153 0.165742 1 
11354 1 25.8651 11.2628 -4.00798 0.0780011 1 
11355 1 24.7174 12.2311 -1.64218 6.68247 2 