ITEM: TIMESTEP
0
ITEM: NUMBER OF ATOMS
13722
ITEM: BOX BOUNDS xy xz yz pp pp ss
0.0000000000000000e+00 2.8821262696399998e+02 1.0936946942100001e+02
0.0000000000000000e+00 4.2907142862999997e+01 0.0000000000000000e+00
-1.0790073403987874e+02 1.1653462216929603e+02 0.0000000000000000e+00
ITEM: ATOMS id type x y z c_csym c_cna 
1 1 177.867 0.284711 -9.41608 0.00108317 1 
2 1 178.519 1.50791 -5.69063 0.0165825 1 
3 1 177.236 1.07042 -3.26757 0.14894 1 
4 1 176.039 0.833167 -0.809834 4.5917 5 
15 1 178.714 5.66906 -11.2615 0.000898631 1 
21 1 177.642 1.74849 -14.1066 0.000263452 1 
22 1 174.834 2.2813 -13.8076 0.00022527 1 
23 1 176.773 3.97406 -12.5414 0.000547118 1 
24 1 176.351 1.28564 -11.6118 0.000458556 1 
25 1 178.292 2.97828 -10.3469 0.00129924 1 
26 1 175.48 3.51299 -10.0562 0.00132136 1 
27 1 177.42 5.20907 -8.78933 0.00259677 1 
28 1 177 2.51602 -7.87594 0.00491048 1 
29 1 176.114 4.75082 -6.32847 0.0128733 1 
30 1 178.017 6.43698 -5.04539 0.0708667 1 
31 1 177.612 3.76607 -4.17121 0.0732821 1 
32 1 176.735 5.97833 -2.4649 3.07877 5 
33 1 178.656 7.28603 -0.89687 8.05296 5 
34 1 177.92 3.48487 0.367417 6.93309 5 
36 1 171.607 0.132624 -12.557 0.000228414 1 
37 1 173.54 1.81987 -11.3058 0.000470176 1 
38 1 175.059 0.823172 -9.11764 0.00125036 1 
39 1 172.247 1.35888 -8.79655 0.00327969 1 
40 1 174.183 3.05269 -7.57393 0.00472215 1 
41 1 173.768 0.366962 -6.61687 0.021115 1 
42 1 175.706 2.07061 -5.41367 0.0249608 1 
43 1 172.905 2.58649 -5.08205 0.0363347 1 
44 1 174.815 4.2897 -3.85569 0.0776622 1 
45 1 174.437 1.57395 -2.91715 0.481439 1 
46 1 176.323 3.36108 -1.75963 5.91741 5 
47 1 173.607 3.7849 -1.32102 0.557736 5 
48 1 175.489 5.27604 0.103156 6.11158 5 
49 1 170.984 0.89284 -6.25421 0.0199168 1 
50 1 169.721 0.484444 -3.75157 0.0533056 1 
51 1 171.704 2.12988 -2.59567 0.154793 1 
52 1 173.305 1.09504 -0.364698 4.35454 5 
53 1 170.632 1.79436 -0.138579 8.44429 5 
108 1 177.611 9.34117 -14.3769 0.00035256 1 
109 1 177.193 6.65956 -13.4612 0.000466193 1 
110 1 176.323 8.88399 -11.8866 0.000587932 1 
111 1 178.265 10.579 -10.5917 0.000885626 1 
112 1 177.842 7.89565 -9.69014 0.0012278 1 
113 1 176.967 10.1128 -8.11326 0.00236318 1 
114 1 178.466 9.11823 -5.91927 0.0246692 1 
115 1 177.591 11.2957 -4.35882 0.037158 1 
116 1 178.142 12.3882 -0.752604 2.33465 5 
132 1 175.254 4.96563 -14.7383 0.000260751 1 
133 1 172.444 5.49659 -14.435 0.000224433 1 
134 1 174.382 7.18933 -13.1667 0.000433279 1 
135 1 173.961 4.50546 -12.2417 0.000511101 1 
136 1 175.901 6.20067 -10.9755 0.00101136 1 
137 1 173.087 6.72752 -10.672 0.00088859 1 
138 1 175.027 8.42168 -9.40084 0.00115058 1 
139 1 174.602 5.73912 -8.4946 0.00302696 1 
140 1 176.536 7.43061 -7.2184 0.00707401 1 
141 1 173.73 7.95173 -6.90794 0.00236602 1 
142 1 175.669 9.61685 -5.62067 0.0179579 1 
143 1 175.245 6.94813 -4.7131 0.0198427 1 
144 1 177.151 8.57149 -3.36057 0.269916 1 
145 1 174.359 9.13286 -3.14695 0.120001 1 
146 1 176.236 10.7692 -1.86578 0.452755 1 
147 1 175.749 8.14 -0.810467 1.32998 5 
156 1 170.092 1.12716 -14.7583 0.000126859 1 
157 1 172.025 2.81427 -13.4997 0.000219209 1 
158 1 169.218 3.34772 -13.1839 0.000212988 1 
159 1 171.15 5.03534 -11.9287 0.000455637 1 
160 1 170.732 2.3539 -10.9872 0.000657482 1 
161 1 172.665 4.04348 -9.74386 0.0013748 1 
162 1 169.857 4.57274 -9.41393 0.001231 1 
163 1 171.791 6.2619 -8.17072 0.00184958 1 
164 1 171.373 3.5801 -7.23423 0.00616697 1 
165 1 173.31 5.27469 -6.00629 0.0111472 1 
166 1 170.507 5.79378 -5.65108 0.00371838 1 
167 1 172.446 7.47462 -4.41217 0.0142558 1 
168 1 172.065 4.80554 -3.49815 0.0280948 1 
169 1 173.977 6.48229 -2.19777 0.207093 1 
170 1 171.183 6.98479 -1.94815 3.1226 5 
171 1 172.97 8.80446 -0.700676 6.81271 5 
173 1 167.289 1.66313 -14.4416 0.000154122 1 
174 1 168.803 0.669922 -12.2386 0.0002712 1 
175 1 166 1.20844 -11.9146 0.00023811 1 
176 1 167.929 2.88948 -10.6615 0.000339067 1 
177 1 167.52 0.218206 -9.71091 0.000502398 1 
178 1 169.449 1.89522 -8.4599 0.00196117 1 
179 1 166.647 2.43827 -8.13103 0.000872145 1 
180 1 168.572 4.1137 -6.88186 0.00369944 1 
181 1 168.171 1.45763 -5.92683 0.007786 1 
182 1 170.103 3.13179 -4.70208 0.0209699 1 
183 1 167.299 3.67192 -4.32816 0.0747337 1 
184 1 169.242 5.32101 -3.11381 0.0949652 1 
185 1 168.848 2.73808 -2.14181 0.514738 1 
186 1 170.856 4.36092 -1.02221 5.29579 5 
187 1 167.983 4.71553 -0.404065 7.06473 5 
188 1 164.718 0.759594 -9.38172 0.00067346 1 
189 1 163.444 0.316394 -6.84306 0.00737299 1 
190 1 165.374 1.99783 -5.58909 0.0290578 1 
191 1 166.88 1.07307 -3.38422 0.487027 1 
192 1 164.159 1.50495 -2.94177 0.305207 1 
193 1 166.008 3.14185 -1.59265 1.18072 1 
194 1 165.65 0.212126 -0.527598 8.69555 5 
195 1 162.958 1.0078 -0.406389 5.64744 5 
303 1 177.161 14.2425 -13.7092 0.00049605 1 
304 1 178.684 13.2599 -11.4948 0.00103025 1 
305 1 177.82 15.4834 -9.91241 0.0028622 1 
306 1 178.491 16.7272 -6.10214 0.0248958 1 
343 1 174.803 9.87035 -14.0864 0.00031862 1 
344 1 176.743 11.5643 -12.7973 0.000456734 1 
345 1 173.933 12.089 -12.5082 0.000371644 1 
346 1 175.876 13.7836 -11.2182 0.000794991 1 
347 1 175.452 11.1024 -10.308 0.000622117 1 
348 1 177.397 12.7991 -9.01472 0.00172018 1 
349 1 174.579 13.3135 -8.73347 0.00125283 1 
350 1 176.528 15.0179 -7.44629 0.00671081 1 
351 1 176.094 12.3211 -6.54495 0.00443985 1 
352 1 178.05 14.0275 -5.2769 0.0507048 1 
353 1 175.217 14.5367 -4.99012 0.0319523 1 
354 1 177.21 16.2373 -3.70383 0.153856 1 
355 1 176.743 13.4961 -2.88691 0.166558 1 
356 1 178.709 15.1705 -1.46707 0.666602 5 
357 1 175.847 15.6596 -1.44839 5.8817 5 
358 1 177.553 17.3048 -0.0656229 7.74447 5 
388 1 171.993 10.3969 -13.7872 0.000259356 1 
389 1 171.571 7.71668 -12.8607 0.000324849 1 
390 1 173.51 9.4091 -11.5912 0.000493303 1 
391 1 170.698 9.9319 -11.2841 0.000376678 1 
392 1 172.637 11.6213 -10.0128 0.000419999 1 
393 1 172.214 8.94189 -9.09412 0.000774294 1 
394 1 174.152 10.6295 -7.81542 0.00146224 1 
395 1 171.335 11.147 -7.51428 0.00114073 1 
396 1 173.264 12.8327 -6.24692 0.00688998 1 
397 1 172.838 10.1506 -5.31791 0.0115999 1 
398 1 174.78 11.8192 -4.09142 0.0379753 1 
399 1 171.899 12.3501 -3.77161 0.279304 1 
400 1 173.839 13.986 -2.59497 0.590316 1 
401 1 173.397 11.3417 -1.71373 2.05086 5 
402 1 175.386 13.12 -0.554382 4.54728 5 
403 1 172.608 13.0909 0.222615 8.85842 5 
423 1 169.636 6.02719 -14.1233 0.000184667 1 
424 1 166.83 6.55873 -13.805 0.000175322 1 
425 1 168.762 8.24413 -12.5454 0.000233141 1 
426 1 168.343 5.56593 -11.6069 0.000314302 1 
427 1 170.276 7.25195 -10.3527 0.000577998 1 
428 1 167.469 7.77959 -10.0263 0.000428906 1 
429 1 169.403 9.46227 -8.77636 0.000859299 1 
430 1 168.984 6.78312 -7.83148 0.001929 1 
431 1 170.92 8.46988 -6.5903 0.00275775 1 
432 1 168.118 8.98841 -6.26081 0.00876854 1 
433 1 170.022 10.6746 -5.00766 0.0542392 1 
434 1 169.634 7.99397 -4.07959 0.0597532 1 
435 1 171.496 9.6656 -2.83593 1.11659 5 
436 1 168.8 10.1193 -2.37476 0.669545 5 
437 1 170.631 11.6545 -0.998297 1.59289 5 
438 1 170.306 8.42368 0.190829 5.78356 5 
450 1 164.487 2.19993 -14.1199 0.0002154 1 
451 1 166.414 3.88242 -12.862 0.000193644 1 
452 1 163.612 4.41809 -12.5349 0.000278391 1 
453 1 165.539 6.09925 -11.2793 0.000294904 1 
454 1 165.127 3.42723 -10.3322 0.000365161 1 
455 1 167.056 5.10562 -9.08102 0.000526593 1 
456 1 164.256 5.64209 -8.74406 0.000937457 1 
457 1 166.186 7.3142 -7.49495 0.00221658 1 
458 1 165.778 4.64841 -6.54202 0.00686385 1 
459 1 167.704 6.30711 -5.28413 0.0282343 1 
460 1 164.935 6.84033 -4.94541 0.0416246 1 
461 1 166.884 8.4954 -3.73798 0.0945741 1 
462 1 166.442 5.77302 -2.64352 0.786161 1 
463 1 168.402 7.40408 -1.51156 6.13966 5 
464 1 165.69 8.09389 -1.29747 2.81414 5 
465 1 167.689 9.5189 0.170483 5.69557 5 
470 1 161.688 2.73698 -13.7951 0.000328108 1 
471 1 163.199 1.74684 -11.5843 0.00047312 1 
472 1 160.402 2.28369 -11.2499 0.00071971 1 
473 1 162.327 3.96385 -9.99496 0.000730485 1 
474 1 161.915 1.29764 -9.03801 0.0016418 1 
475 1 163.849 2.9766 -7.79399 0.00278196 1 
476 1 161.056 3.51174 -7.44095 0.00244439 1 
477 1 162.994 5.18717 -6.19394 0.0105049 1 
478 1 162.608 2.5184 -5.23776 0.035213 1 
479 1 164.539 4.15725 -3.95792 0.12505 1 
480 1 161.719 4.76104 -3.69925 0.10078 1 
481 1 163.634 6.37147 -2.51848 6.78587 5 
482 1 163.181 3.73603 -1.4316 4.83308 5 
483 1 164.763 5.71559 -0.138561 9.92412 5 
484 1 162.024 4.64666 0.968794 5.09212 5 
485 1 158.484 0.605959 -12.518 0.00093618 1 
486 1 157.203 0.155916 -9.95711 0.00235617 1 
487 1 159.122 1.83059 -8.69062 0.00151223 1 
488 1 160.644 0.848758 -6.47228 0.00786067 1 
489 1 157.847 1.38216 -6.12095 0.0176768 1 
490 1 159.785 3.06395 -4.89263 0.0386842 1 
491 1 159.376 0.401225 -3.90965 0.352863 1 
492 1 161.376 2.10418 -2.76575 0.52388 5 
493 1 158.556 2.48824 -2.3035 2.13957 5 
494 1 160.457 4.49103 -1.2454 8.53328 5 
495 1 160.41 2.0613 -0.220947 6.16605 5 
496 1 156.602 0.888863 -3.46005 0.281323 1 
497 1 155.322 0.503414 -0.884504 6.53948 5 
498 1 158.045 1.35532 0.773126 9.44995 5 
660 1 178.642 20.8307 -11.707 0.00137399 1 
716 1 177.575 16.9182 -14.6219 0.000500441 1 
717 1 174.772 17.4463 -14.3417 0.000460488 1 
718 1 176.71 19.1393 -13.0344 0.000898868 1 
719 1 176.295 16.4633 -12.1268 0.00105218 1 
720 1 178.235 18.1598 -10.8052 0.00206012 1 
721 1 175.43 18.6806 -10.5454 0.00218988 1 
722 1 177.368 20.3791 -9.21121 0.00383653 1 
723 1 176.957 17.7019 -8.32606 0.00574049 1 
724 1 176.076 19.9119 -6.74423 0.0110479 1 
725 1 178 21.6219 -5.36704 0.0397816 1 
726 1 177.583 18.943 -4.51089 0.0463365 1 
727 1 176.584 21.1244 -2.98051 0.338652 1 
728 1 178.404 22.8332 -1.5533 5.1596 5 
729 1 177.989 20.1583 -0.867958 7.93076 5 
776 1 172.414 13.0759 -14.711 0.00022857 1 
777 1 174.354 14.7682 -13.4252 0.000414073 1 
778 1 171.543 15.2912 -13.1338 0.000337855 1 
779 1 173.486 16.9838 -11.8482 0.000830322 1 
780 1 173.062 14.3021 -10.9318 0.000617526 1 
781 1 175.007 15.9985 -9.64332 0.00211632 1 
782 1 172.188 16.5083 -9.36094 0.00137521 1 
783 1 174.137 18.205 -8.07431 0.0050961 1 
784 1 173.702 15.5153 -7.16699 0.0044287 1 
785 1 175.658 17.2242 -5.87458 0.0203507 1 
786 1 172.82 17.6979 -5.61528 0.0218401 1 
787 1 174.732 19.3983 -4.30687 0.0867398 1 
788 1 174.298 16.7082 -3.44901 0.249 1 
789 1 176.179 18.4129 -2.13563 6.65498 5 
790 1 173.456 18.7216 -1.73027 6.37488 5 
791 1 175.313 20.3802 -0.29033 6.23475 5 
830 1 169.604 13.6016 -14.4099 0.000184787 1 
831 1 169.182 10.9228 -13.4793 0.00020777 1 
832 1 171.12 12.6114 -12.2099 0.000309385 1 
833 1 168.308 13.135 -11.9016 0.000274932 1 
834 1 170.246 14.8207 -10.6352 0.000470303 1 
835 1 169.822 12.1409 -9.70731 0.000505465 1 
836 1 171.758 13.8255 -8.43873 0.00111652 1 
837 1 168.941 14.3435 -8.13218 0.00263249 1 
838 1 170.873 16.0165 -6.86927 0.00989412 1 
839 1 170.435 13.3446 -5.93684 0.0276114 1 
840 1 172.358 15.0131 -4.68928 0.0820636 1 
841 1 169.576 15.5006 -4.30718 0.0995291 1 
842 1 171.524 17.1272 -3.10157 0.17078 1 
843 1 171.049 14.3986 -2.02242 0.693299 1 
844 1 173.045 15.9147 -0.877812 6.25337 5 
845 1 170.206 16.7177 -0.654521 5.75319 5 
876 1 167.248 9.23602 -14.744 0.000147066 1 
877 1 164.443 9.76685 -14.4252 0.000176401 1 
878 1 166.373 11.4502 -13.1632 0.000237048 1 
879 1 165.955 8.77397 -12.2227 0.000278196 1 
880 1 167.887 10.457 -10.9667 0.000373002 1 
881 1 165.078 10.9853 -10.6381 0.000605936 1 
882 1 167.01 12.6655 -9.38684 0.0009199 1 
883 1 166.595 9.98953 -8.44548 0.00135519 1 
884 1 168.523 11.6671 -7.19767 0.0066627 1 
885 1 165.728 12.1956 -6.85563 0.00254094 1 
886 1 167.66 13.8625 -5.60163 0.0211891 1 
887 1 167.279 11.1876 -4.65612 0.0448388 1 
888 1 169.16 12.8421 -3.32403 0.154603 1 
889 1 166.401 13.4284 -3.10268 0.178289 1 
890 1 168.202 15.1157 -1.76382 0.675058 5 
891 1 167.844 12.3295 -0.793546 5.12719 5 
914 1 162.102 5.40993 -14.7443 0.000184343 1 
915 1 164.027 7.09182 -13.4817 0.000212507 1 
916 1 161.228 7.62662 -13.1566 0.000195128 1 
917 1 163.151 9.30625 -11.8942 0.000390479 1 
918 1 162.739 6.63428 -10.9466 0.000446943 1 
919 1 164.665 8.31237 -9.69203 0.000681036 1 
920 1 161.866 8.84763 -9.35175 0.00089725 1 
921 1 163.791 10.5206 -8.09819 0.0019066 1 
922 1 163.39 7.85289 -7.14839 0.00252669 1 
923 1 165.325 9.52331 -5.91147 0.00497011 1 
924 1 162.515 10.0574 -5.53776 0.0190458 1 
925 1 164.471 11.7261 -4.32869 0.0327587 1 
926 1 164.079 9.04662 -3.38174 0.13512 1 
927 1 166.065 10.7408 -2.19942 0.557797 5 
928 1 163.281 11.1472 -1.8092 3.56626 5 
929 1 165.179 13.1811 -0.6401 7.79886 5 
943 1 159.306 5.94657 -14.4225 0.000229754 1 
944 1 158.894 3.27473 -13.4704 0.000535449 1 
945 1 160.815 4.9541 -12.2057 0.000301383 1 
946 1 158.023 5.49199 -11.8784 0.000407637 1 
947 1 159.945 7.17118 -10.6155 0.000294944 1 
948 1 159.535 4.49949 -9.65815 0.000450723 1 
949 1 161.461 6.17967 -8.40114 0.00110184 1 
950 1 158.671 6.72159 -8.07237 0.00193205 1 
951 1 160.586 8.39811 -6.7991 0.00794793 1 
952 1 160.183 5.73954 -5.85877 0.0131848 1 
953 1 162.102 7.41907 -4.61736 0.0653971 1 
954 1 159.326 7.95929 -4.20594 0.0835164 1 
955 1 161.273 9.58083 -2.91255 0.198301 1 
956 1 160.871 7.00725 -2.0084 3.26223 5 
957 1 162.96 8.33348 -0.76701 9.05618 5 
958 1 159.928 9.03048 -0.276875 6.9638 5 
964 1 156.979 1.59754 -14.7497 0.000411487 1 
965 1 154.194 2.13985 -14.4415 0.000426032 1 
966 1 156.106 3.81526 -13.1513 0.000523136 1 
967 1 155.699 1.1475 -12.2002 0.000881496 1 
968 1 157.612 2.82108 -10.9172 0.00147943 1 
969 1 154.828 3.36478 -10.5981 0.00134493 1 
970 1 156.746 5.03898 -9.32808 0.00136795 1 
971 1 156.333 2.36818 -8.3505 0.00784531 1 
972 1 158.263 4.04781 -7.10685 0.00209668 1 
973 1 155.481 4.57931 -6.76799 0.0117965 1 
974 1 157.413 6.27836 -5.53095 0.0300743 1 
975 1 157.005 3.57887 -4.54162 0.0252721 1 
976 1 158.909 5.26838 -3.33569 0.729678 1 
977 1 156.212 5.77479 -2.95277 0.570735 1 
978 1 158.09 7.30874 -1.56251 1.53663 5 
979 1 157.882 4.27341 -0.391217 8.78733 5 
981 1 152.918 1.69296 -11.8944 0.001091 1 
982 1 154.422 0.700903 -9.64077 0.00269199 1 
983 1 151.648 1.24919 -9.33693 0.00434782 1 
984 1 153.56 2.91314 -8.03137 0.00743363 1 
985 1 153.156 0.256219 -7.05651 0.0145631 1 
986 1 155.071 1.90678 -5.73678 0.0689079 1 
987 1 152.293 2.47348 -5.479 0.0685312 1 
988 1 154.222 4.14622 -4.19975 0.278799 1 
989 1 153.737 1.55186 -3.11561 0.50389 1 
990 1 155.722 3.12943 -1.98287 5.55887 5 
991 1 152.675 4.05141 -1.71004 10.3951 5 
992 1 155.357 5.30943 -0.334807 7.27027 5 
993 1 150.372 0.813803 -6.77522 0.0209191 1 
994 1 149.072 0.377057 -4.21144 0.122337 1 
995 1 150.929 2.13372 -2.97679 4.66472 5 
996 1 152.24 1.54407 -0.623787 6.72207 5 
997 1 149.625 0.661768 0.510329 5.06617 5 
1265 1 177.528 24.4829 -14.865 0.000393919 1 
1266 1 177.12 21.812 -13.9463 0.000621794 1 
1267 1 176.254 24.0312 -12.3558 0.000947963 1 
1268 1 178.179 25.7179 -11.0239 0.00128851 1 
1269 1 177.776 23.0495 -10.109 0.00239214 1 
1270 1 176.904 25.2659 -8.51708 0.00343438 1 
1271 1 178.411 24.2951 -6.24564 0.0196164 1 
1272 1 177.555 26.4902 -4.62179 0.13704 1 
1273 1 177.71 27.9684 -0.537018 7.76048 5 
1340 1 172.384 20.6501 -14.9767 0.000370341 1 
1341 1 174.321 22.3416 -13.6745 0.000651356 1 
1342 1 173.906 19.6642 -12.7616 0.000860647 1 
1343 1 175.844 21.3581 -11.4472 0.00154743 1 
1344 1 173.036 21.8802 -11.1841 0.00134569 1 
1345 1 174.974 23.5741 -9.8622 0.00215008 1 
1346 1 174.558 20.8935 -8.96703 0.00367596 1 
1347 1 176.491 22.5932 -7.62184 0.00685957 1 
1348 1 173.675 23.1001 -7.38939 0.006564 1 
1349 1 175.604 24.7983 -6.03506 0.0244635 1 
1350 1 175.161 22.1027 -5.16903 0.0376193 1 
1351 1 177.068 23.8117 -3.78594 0.117757 1 
1352 1 174.241 24.2247 -3.58189 0.0905041 1 
1353 1 176.133 25.8876 -2.23225 0.778987 1 
1354 1 175.627 23.1517 -1.28438 0.462459 1 
1355 1 177.275 24.9554 0.172876 5.15002 5 
1356 1 174.41 25.2899 0.0689281 6.49018 5 
1415 1 171.965 17.9711 -14.056 0.000368744 1 
1416 1 169.155 18.4951 -13.7634 0.000270337 1 
1417 1 171.095 20.1863 -12.4817 0.000632507 1 
1418 1 170.672 17.503 -11.5604 0.000522768 1 
1419 1 172.616 19.1957 -10.2765 0.00171242 1 
1420 1 169.798 19.7125 -9.99303 0.000888171 1 
1421 1 171.741 21.4054 -8.70928 0.00304526 1 
1422 1 171.314 18.7074 -7.80129 0.00385364 1 
1423 1 173.252 20.3994 -6.50907 0.010671 1 
1424 1 170.443 20.9074 -6.25244 0.0213948 1 
1425 1 172.357 22.5699 -4.93184 0.0359708 1 
1426 1 171.969 19.8463 -4.03808 0.0895826 1 
1427 1 173.821 21.4814 -2.64638 0.185753 1 
1428 1 171.018 22.0335 -2.5263 0.13075 1 
1429 1 172.765 23.6303 -1.20422 0.70275 1 
1430 1 172.465 20.7766 -0.199854 5.72342 5 
1481 1 166.794 14.1278 -14.1014 0.000173225 1 
1482 1 168.731 15.8144 -12.8338 0.000251165 1 
1483 1 165.92 16.3392 -12.5254 0.000208294 1 
1484 1 167.857 18.0244 -11.2617 0.000370776 1 
1485 1 167.431 15.3432 -10.3255 0.000459495 1 
1486 1 169.369 17.0251 -9.0653 0.000976378 1 
1487 1 166.555 17.5483 -8.75328 0.000883098 1 
1488 1 168.495 19.2288 -7.50392 0.00299392 1 
1489 1 168.073 16.5388 -6.55621 0.00888878 1 
1490 1 170.017 18.1921 -5.31432 0.0269266 1 
1491 1 167.192 18.7592 -5.02214 0.019959 1 
1492 1 169.16 20.412 -3.84961 0.162209 1 
1493 1 168.705 17.7246 -2.83637 0.25148 1 
1494 1 170.664 19.3322 -1.6488 0.984795 5 
1495 1 167.875 20.0162 -1.50805 5.82239 5 
1496 1 169.797 21.6133 -0.0926976 6.56297 5 
1539 1 163.987 14.6558 -13.7866 0.000215729 1 
1540 1 163.567 11.9798 -12.8407 0.000323601 1 
1541 1 165.497 13.6608 -11.5832 0.000347892 1 
1542 1 162.692 14.1896 -11.2579 0.000530873 1 
1543 1 164.623 15.8687 -10.0068 0.000263674 1 
1544 1 164.204 13.1921 -9.05349 0.000655017 1 
1545 1 166.135 14.87 -7.80369 0.00104522 1 
1546 1 163.328 15.3987 -7.48069 0.000891776 1 
1547 1 165.249 17.0793 -6.23628 0.00590892 1 
1548 1 164.841 14.401 -5.27723 0.0115881 1 
1549 1 166.775 16.0784 -4.06714 0.0781781 1 
1550 1 163.911 16.6096 -3.73427 0.339575 1 
1551 1 165.835 18.3066 -2.61974 1.4939 5 
1552 1 165.419 15.7361 -1.61864 2.94697 5 
1553 1 167.255 17.6825 -0.409852 9.24771 5 
1554 1 164.391 17.3447 0.413341 5.37779 5 
1588 1 161.642 10.2999 -14.104 0.000164452 1 
1589 1 158.845 10.8362 -13.783 0.000139703 1 
1590 1 160.767 12.5132 -12.5169 0.000283044 1 
1591 1 160.354 9.84181 -11.566 0.000262061 1 
1592 1 162.276 11.5166 -10.3032 0.000880557 1 
1593 1 159.48 12.0549 -9.97322 0.000708451 1 
1594 1 161.4 13.7228 -8.71604 0.00226704 1 
1595 1 160.991 11.0547 -7.74868 0.00439975 1 
1596 1 162.919 12.721 -6.51082 0.00453612 1 
1597 1 160.117 13.2508 -6.15257 0.0156763 1 
1598 1 162.038 14.9277 -4.95279 0.0273592 1 
1599 1 161.654 12.2318 -3.94707 0.0288335 1 
1600 1 163.562 13.8881 -2.76229 1.63413 5 
1601 1 160.772 14.3897 -2.4126 2.12719 5 
1602 1 162.655 15.7916 -0.987632 6.40459 5 
1603 1 162.747 12.5178 0.383412 7.89245 5 
1630 1 156.514 6.48604 -14.1034 0.000254567 1 
1631 1 158.433 8.16423 -12.8327 0.000168035 1 
1632 1 155.641 8.70579 -12.5114 0.000223418 1 
1633 1 157.561 10.3826 -11.2417 0.000234179 1 
1634 1 157.153 7.71279 -10.2897 0.000397112 1 
1635 1 159.074 9.38895 -9.01994 0.000881026 1 
1636 1 156.287 9.9365 -8.69599 0.00149733 1 
1637 1 158.205 11.602 -7.41578 0.002735 1 
1638 1 157.81 8.94216 -6.46206 0.00584074 1 
1639 1 159.724 10.59 -5.1596 0.0244988 1 
1640 1 156.943 11.1578 -4.85555 0.0486533 1 
1641 1 158.829 12.7704 -3.56151 0.355182 1 
1642 1 158.429 10.1324 -2.52524 0.541238 1 
1643 1 160.404 11.714 -1.3455 6.31245 5 
1644 1 157.243 12.6113 -1.07495 9.98817 5 
1645 1 160.318 13.8371 0.315661 8.12364 5 
1663 1 153.725 7.02826 -13.7883 0.000389018 1 
1664 1 153.32 4.35927 -12.8394 0.0006768 1 
1665 1 155.234 6.03496 -11.5571 0.000446657 1 
1666 1 152.447 6.58051 -11.2389 0.000940184 1 
1667 1 154.363 8.25926 -9.96481 0.000639157 1 
1668 1 153.961 5.58681 -9.00583 0.00176591 1 
1669 1 155.886 7.2656 -7.74792 0.00490978 1 
1670 1 153.095 7.82182 -7.41655 0.00421439 1 
1671 1 155.037 9.50387 -6.15922 0.0236535 1 
1672 1 154.664 6.81886 -5.21958 0.0532455 1 
1673 1 156.584 8.4875 -3.88413 0.111866 1 
1674 1 153.807 9.08475 -3.69841 0.39169 1 
1675 1 155.599 10.7261 -2.36565 4.68231 5 
1676 1 155.359 7.98802 -1.36025 5.34245 5 
1677 1 156.999 9.99469 -0.0566909 6.32609 5 
1678 1 154.439 8.93064 1.11769 0.468426 1 
1687 1 151.41 2.6835 -14.1424 0.000411935 1 
1688 1 148.628 3.22653 -13.8531 0.000447437 1 
1689 1 150.538 4.9046 -12.5367 0.000674461 1 
1690 1 150.14 2.23919 -11.6019 0.00106537 1 
1691 1 152.046 3.91229 -10.2857 0.0020353 1 
1692 1 149.265 4.46286 -9.99049 0.00146107 1 
1693 1 151.17 6.13892 -8.68424 0.00396288 1 
1694 1 150.772 3.4737 -7.73022 0.00837076 1 
1695 1 152.701 5.15112 -6.46408 0.0194644 1 
1696 1 149.877 5.71398 -6.13321 0.0847211 1 
1697 1 151.839 7.38968 -4.87468 0.165676 1 
1698 1 151.403 4.72754 -4.01833 7.07799 5 
1699 1 153.473 6.45068 -2.77194 1.74345 5 
1700 1 150.734 6.69335 -2.23873 7.75713 5 
1701 1 152.785 8.99887 -1.18587 5.92766 5 
1702 1 152.961 6.56609 -0.10729 4.13748 5 
1705 1 148.227 0.558808 -12.9327 0.000720422 1 
1706 1 145.44 1.09672 -12.6613 0.000994107 1 
1707 1 147.359 2.78405 -11.3251 0.00109444 1 
1708 1 148.871 1.80018 -9.06313 0.00300507 1 
1709 1 146.092 2.34507 -8.80676 0.00357379 1 
1710 1 147.986 4.02973 -7.44339 0.00993671 1 
1711 1 147.596 1.36558 -6.53128 0.0127404 1 
1712 1 149.462 3.05207 -5.18819 0.0988214 1 
1713 1 146.709 3.60654 -4.88348 0.040805 1 
1714 1 148.646 5.22113 -3.42398 1.45856 5 
1715 1 148.136 2.56941 -2.62793 2.99388 5 
1716 1 149.842 3.32099 -0.641042 7.99886 5 
1717 1 147.317 4.75875 -0.833092 7.28405 5 
1718 1 148.221 6.90262 0.93316 4.93271 5 
1719 1 144.17 0.649174 -10.1655 0.0031523 1 
1720 1 142.894 0.194923 -7.69803 0.0127582 1 
1721 1 144.829 1.90318 -6.30791 0.0163609 1 
1722 1 146.307 0.920759 -4.00885 0.0746686 1 
1723 1 143.565 1.41585 -3.84239 0.102763 1 
1724 1 145.422 3.14972 -2.35362 0.215238 1 
1725 1 145.028 0.386243 -1.44545 5.16746 5 
1726 1 147.045 2.06175 0.141825 6.73946 5 
1727 1 144.05 2.63929 -0.0357208 2.92716 5 
1728 1 142.259 0.861351 -1.46581 0.637446 5 
2007 1 177.064 29.3755 -14.2003 0.000321819 1 
2008 1 178.58 28.3879 -11.9522 0.000672167 1 
2009 1 177.711 30.6116 -10.3604 0.00121227 1 
2010 1 178.349 31.8596 -6.51175 0.0098768 1 
2097 1 174.733 25.0165 -14.5909 0.00043244 1 
2098 1 176.66 26.7031 -13.2741 0.000552228 1 
2099 1 173.865 27.2368 -13.0067 0.000596367 1 
2100 1 175.792 28.9243 -11.6857 0.000746513 1 
2101 1 175.386 26.2495 -10.7686 0.00128796 1 
2102 1 177.311 27.9372 -9.43205 0.00191192 1 
2103 1 174.517 28.468 -9.1861 0.0031984 1 
2104 1 176.449 30.1579 -7.84614 0.0104328 1 
2105 1 176.037 27.472 -6.92862 0.0143549 1 
2106 1 177.971 29.1629 -5.55272 0.0618327 1 
2107 1 175.168 29.7017 -5.3993 0.0507973 1 
2108 1 177.09 31.3887 -4.00666 0.045893 1 
2109 1 176.669 28.6644 -3.11514 0.680383 1 
2110 1 178.594 30.4421 -1.63339 3.21687 5 
2111 1 175.85 30.837 -1.56367 6.17991 5 
2112 1 177.954 32.8822 0.0261776 6.81654 5 
2190 1 171.932 25.5474 -14.3168 0.000436501 1 
2191 1 171.516 22.8681 -13.3995 0.000594293 1 
2192 1 173.453 24.5598 -12.0926 0.000888893 1 
2193 1 170.646 25.0858 -11.8251 0.000836199 1 
2194 1 172.582 26.7778 -10.5144 0.00140339 1 
2195 1 172.162 24.0943 -9.60861 0.00159416 1 
2196 1 174.098 25.7864 -8.28204 0.00363971 1 
2197 1 171.281 26.3077 -8.03978 0.00387317 1 
2198 1 173.219 28.0009 -6.7178 0.0116747 1 
2199 1 172.783 25.2981 -5.82021 0.0287966 1 
2200 1 174.719 26.9796 -4.4684 0.120201 1 
2201 1 171.854 27.5156 -4.30079 0.0582596 1 
2202 1 173.807 29.2189 -3.07009 0.331583 1 
2203 1 173.22 26.3759 -2.1569 0.392948 1 
2204 1 175.047 28.0218 -0.960155 8.33311 5 
2205 1 172.331 28.6576 -0.841084 6.66114 5 
2274 1 169.576 21.1764 -14.6901 0.000295054 1 
2275 1 166.768 21.7026 -14.3973 0.000227207 1 
2276 1 168.707 23.3933 -13.1182 0.000493547 1 
2277 1 168.283 20.7086 -12.1929 0.000428649 1 
2278 1 170.224 22.4007 -10.9121 0.00109516 1 
2279 1 167.408 22.9219 -10.6283 0.000850597 1 
2280 1 169.347 24.6145 -9.34535 0.00166548 1 
2281 1 168.92 21.9229 -8.43418 0.00297834 1 
2282 1 170.856 23.6127 -7.13938 0.00686921 1 
2283 1 168.028 24.1314 -6.8773 0.00413084 1 
2284 1 169.938 25.8226 -5.58807 0.0131166 1 
2285 1 169.515 23.1141 -4.69901 0.0213912 1 
2286 1 171.386 24.7622 -3.43325 0.0666224 1 
2287 1 168.561 25.3143 -3.12406 0.238067 1 
2288 1 170.4 27.0148 -1.95923 6.18431 5 
2289 1 170.018 24.2834 -1.01679 4.49204 5 
2351 1 164.409 17.3342 -14.7299 0.000141956 1 
2352 1 166.344 19.02 -13.4636 0.000208405 1 
2353 1 163.536 19.5473 -13.1575 0.000191108 1 
2354 1 165.471 21.2328 -11.8954 0.000330267 1 
2355 1 165.045 18.5487 -10.9539 0.000306541 1 
2356 1 166.981 20.2332 -9.69651 0.000674072 1 
2357 1 164.167 20.7585 -9.39009 0.000699962 1 
2358 1 166.097 22.4424 -8.13988 0.00191967 1 
2359 1 165.669 19.756 -7.19659 0.00269475 1 
2360 1 167.6 21.4417 -5.96528 0.0149645 1 
2361 1 164.778 21.9579 -5.63427 0.0339609 1 
2362 1 166.697 23.6355 -4.39502 0.0748231 1 
2363 1 166.269 20.9633 -3.49168 0.388027 1 
2364 1 168.206 22.6056 -2.25435 6.69909 5 
2365 1 165.392 22.9527 -1.80139 4.59218 5 
2366 1 167.23 24.5129 -0.526066 5.22314 5 
2420 1 161.604 17.8646 -14.4183 0.000174933 1 
2421 1 161.184 15.1873 -13.4684 0.000249926 1 
2422 1 163.113 16.8669 -12.2108 0.00022867 1 
2423 1 160.309 17.3999 -11.8916 0.000408191 1 
2424 1 162.238 19.0782 -10.6405 0.000339731 1 
2425 1 161.817 16.3994 -9.68421 0.000439876 1 
2426 1 163.743 18.0763 -8.43652 0.000675998 1 
2427 1 160.94 18.6115 -8.1135 0.00267076 1 
2428 1 162.857 20.2869 -6.87222 0.0119928 1 
2429 1 162.434 17.6083 -5.9084 0.0252193 1 
2430 1 164.334 19.2918 -4.69424 0.148654 1 
2431 1 161.584 19.7985 -4.28504 0.0811477 1 
2432 1 163.481 21.3838 -3.00999 0.461276 1 
2433 1 163.078 18.6832 -1.96888 0.920558 5 
2434 1 165.067 20.1358 -0.721557 8.69527 5 
2435 1 162.032 21.0972 -0.524788 6.53173 5 
2479 1 159.259 13.509 -14.7327 0.000144673 1 
2480 1 156.462 14.047 -14.4154 0.000165711 1 
2481 1 158.384 15.7235 -13.1495 0.000264761 1 
2482 1 157.971 13.0519 -12.1947 0.000250199 1 
2483 1 159.892 14.725 -10.9322 0.000651242 1 
2484 1 157.096 15.2676 -10.6077 0.000557827 1 
2485 1 159.015 16.9382 -9.35339 0.00150586 1 
2486 1 158.605 14.2674 -8.38247 0.00240668 1 
2487 1 160.525 15.9345 -7.15025 0.00528453 1 
2488 1 157.728 16.487 -6.79602 0.00935215 1 
2489 1 159.674 18.1488 -5.55928 0.0179111 1 
2490 1 159.273 15.4776 -4.61458 0.0660415 1 
2491 1 161.191 17.1109 -3.28813 0.204417 1 
2492 1 158.423 17.7275 -3.04048 0.146137 1 
2493 1 160.291 19.3616 -1.7737 0.920897 5 
2494 1 159.968 16.5534 -0.7752 5.78782 5 
2530 1 154.133 9.69831 -14.738 0.000234562 1 
2531 1 156.05 11.3759 -13.4633 0.000173608 1 
2532 1 153.259 11.9178 -13.1457 0.000223445 1 
2533 1 155.177 13.5945 -11.8735 0.000249963 1 
2534 1 154.769 10.9272 -10.9184 0.000303914 1 
2535 1 156.689 12.6013 -9.64882 0.000723798 1 
2536 1 153.896 13.1517 -9.32598 0.00063317 1 
2537 1 155.814 14.8233 -8.05615 0.00256504 1 
2538 1 155.418 12.1679 -7.10265 0.00784674 1 
2539 1 157.329 13.8237 -5.81978 0.0274946 1 
2540 1 154.517 14.4176 -5.51068 0.0562926 1 
2541 1 156.438 16.0685 -4.23808 0.416584 1 
2542 1 155.983 13.437 -3.33269 6.47366 5 
2543 1 157.995 15.0775 -2.19199 3.4092 5 
2544 1 155.268 15.3215 -1.22749 9.73135 5 
2545 1 157.249 17.3835 -0.529426 5.50804 5 
2574 1 151.344 10.2401 -14.4268 0.000351231 1 
2575 1 150.939 7.57174 -13.4795 0.000497338 1 
2576 1 152.851 9.24911 -12.1921 0.00046768 1 
2577 1 150.065 9.79292 -11.8783 0.000891546 1 
2578 1 151.978 11.4722 -10.5978 0.00033208 1 
2579 1 151.573 8.80489 -9.63907 0.00146161 1 
2580 1 153.494 10.4883 -8.37003 0.00153661 1 
2581 1 150.702 11.0329 -8.04591 0.00132875 1 
2582 1 152.612 12.7259 -6.78058 0.00731691 1 
2583 1 152.219 10.0583 -5.82483 0.0315806 1 
2584 1 154.137 11.7743 -4.59781 0.0927213 1 
2585 1 151.329 12.2934 -4.24666 0.394193 1 
2586 1 153.278 14.0416 -2.85911 6.01405 5 
2587 1 152.865 11.4676 -2.15446 8.05377 5 
2588 1 154.448 11.541 0.0350123 6.85539 5 
2589 1 151.994 13.2892 -0.194013 5.54932 5 
2609 1 149.029 5.89399 -14.7837 0.000307712 1 
2610 1 146.245 6.43544 -14.4965 0.000349094 1 
2611 1 148.157 8.11548 -13.1808 0.000492657 1 
2612 1 147.757 5.44967 -12.2471 0.000628991 1 
2613 1 149.663 7.12711 -10.9299 0.00120977 1 
2614 1 146.884 7.67279 -10.6361 0.00146138 1 
2615 1 148.788 9.34897 -9.32015 0.00408035 1 
2616 1 148.384 6.68832 -8.37326 0.00845024 1 
2617 1 150.297 8.36411 -7.0764 0.0146362 1 
2618 1 147.524 8.89525 -6.73327 0.0281497 1 
2619 1 149.44 10.5812 -5.48751 0.0219779 1 
2620 1 149.052 7.88109 -4.45132 0.13598 1 
2621 1 150.992 9.52385 -3.26076 1.89917 5 
2622 1 148.192 10.083 -2.9416 5.01438 5 
2623 1 150.195 11.4518 -1.46962 7.16988 5 
2624 1 150.441 8.25473 -0.133063 8.70016 5 
2635 1 143.919 2.07931 -14.895 0.000452642 1 
2636 1 145.843 3.76712 -13.5739 0.000565088 1 
2637 1 143.055 4.30308 -13.3017 0.000748297 1 
2638 1 144.976 5.991 -11.9704 0.00091563 1 
2639 1 144.575 3.32279 -11.0604 0.00158281 1 
2640 1 146.487 5.01054 -9.71136 0.00210603 1 
2641 1 143.71 5.5483 -9.45241 0.00316534 1 
2642 1 145.622 7.23228 -8.07793 0.00947629 1 
2643 1 145.221 4.57798 -7.17858 0.0088267 1 
2644 1 147.129 6.24324 -5.7637 0.0560959 1 
2645 1 144.35 6.80694 -5.54196 0.0295032 1 
2646 1 146.233 8.47035 -4.15179 0.131207 1 
2647 1 145.851 5.83748 -3.19192 0.160394 1 
2648 1 147.8 7.44357 -1.8337 6.35524 5 
2649 1 144.834 8.16894 -1.64191 7.59498 5 
2650 1 148.098 9.64538 -0.132814 6.99505 5 
2655 1 141.123 2.61169 -14.6181 0.00047845 1 
2656 1 142.646 1.62901 -12.3933 0.0011168 1 
2657 1 139.845 2.1553 -12.1226 0.00103453 1 
2658 1 141.783 3.85289 -10.8024 0.00205463 1 
2659 1 141.368 1.17356 -9.90734 0.00291993 1 
2660 1 143.308 2.87706 -8.56398 0.00546771 1 
2661 1 140.507 3.39368 -8.32347 0.00567375 1 
2662 1 142.439 5.09993 -6.9576 0.00988851 1 
2663 1 142.041 2.41768 -6.09882 0.0243524 1 
2664 1 143.956 4.12955 -4.67925 0.0404045 1 
2665 1 141.133 4.63706 -4.50985 0.0453831 1 
2666 1 143.054 6.36657 -3.09059 0.215669 1 
2667 1 142.624 3.64603 -2.29574 0.187148 1 
2668 1 144.501 5.42002 -0.72868 5.6204 5 
2669 1 141.539 5.85595 -0.868481 7.91223 5 