ITEM: TIMESTEP
0
ITEM: NUMBER OF ATOMS
10362
ITEM: BOX BOUNDS xy xz yz pp pp ss
-32.091064644 110.913817895 -32.091064644
0 52.371161625 0
-131.4768801484988 146.4339821112525 0
ITEM: ATOMS id type x y z c_csym c_cna 
1 1 7.6499 52.2696 -11.838 0.000111863 1 
2 1 4.98901 52.358 -12.8808 8.0091e-05 1 
3 1 3.95034 51.5662 -10.3336 0.000228057 1 
4 1 1.28757 51.6538 -11.3742 0.000210162 1 
5 1 0.245768 50.8569 -8.82566 0.00133797 1 
6 1 12.9746 52.0894 -9.7595 0.000265017 1 
7 1 10.3125 52.1807 -10.7999 0.000163162 1 
8 1 9.2761 51.3947 -8.26061 0.00149583 1 
9 1 6.61012 51.4791 -9.28927 0.000930437 1 
10 1 5.57213 50.686 -6.72768 0.0175269 1 
11 1 2.91414 50.7694 -7.7912 0.00293984 1 
12 1 3.5797 52.2482 -5.4248 0.0233937 1 
13 1 0.91478 52.3525 -6.48661 0.0101249 1 
14 1 1.88418 49.9558 -5.26693 0.0259529 1 
15 1 -0.133502 51.5017 -3.97872 0.217722 1 
16 1 18.2998 51.8968 -7.67578 0.00228238 1 
17 1 15.637 51.9964 -8.72045 0.000501241 1 
18 1 14.5924 51.2072 -6.18413 0.00884958 1 
19 1 11.9371 51.3064 -7.21728 0.00362257 1 
20 1 10.9037 50.5315 -4.68273 0.0380135 1 
21 1 8.2437 50.613 -5.74017 0.0220689 1 
22 1 8.89274 52.0994 -3.35928 0.123973 1 
23 1 6.25422 52.2271 -4.39181 0.112178 1 
24 1 7.23314 49.8402 -3.26412 0.327863 1 
25 1 4.54236 49.8589 -4.14576 0.206578 1 
26 1 5.2107 51.4401 -1.94564 5.33262 5 
27 1 2.53069 51.4011 -2.87722 0.358026 1 
28 1 3.39565 49.092 -1.4796 5.67247 5 
29 1 0.880912 49.115 -2.77863 6.62361 5 
30 1 59.4329 0.0103579 -7.10641 0.0261835 1 
31 1 23.6271 51.6727 -5.60692 0.0463205 1 
32 1 20.9694 51.807 -6.64289 0.00487052 1 
33 1 19.9299 51.0241 -4.12878 0.165335 1 
34 1 17.2486 51.1029 -5.12356 0.0560464 1 
35 1 16.2134 50.1606 -2.49519 4.9089 5 
36 1 13.5856 50.3972 -3.63526 0.0893126 1 
37 1 14.1735 51.9807 -1.34509 3.43745 5 
38 1 11.5817 51.9542 -2.23102 5.22252 5 
39 1 12.6213 49.5087 -1.13382 8.17913 5 
40 1 9.85824 49.7925 -2.0979 1.50755 5 
41 1 7.84081 51.3169 -0.689531 9.97382 5 
42 1 6.10993 49.0618 -0.933615 9.60748 5 
43 1 32.6653 52.2027 -4.93241 0.0624693 1 
44 1 30.0022 52.2695 -6.02202 0.0388644 1 
45 1 28.9177 51.5128 -3.46355 2.25692 5 
46 1 26.2849 51.5783 -4.61642 0.177457 1 
47 1 25.3327 50.8466 -2.07017 5.71134 5 
48 1 22.635 50.8512 -3.01659 0.31843 1 
49 1 18.9391 50.4478 -1.43778 6.27801 5 
50 1 16.6609 51.7166 -0.380738 7.15478 5 
51 1 37.9329 52.0652 -2.75197 0.315087 1 
52 1 35.3318 52.1956 -3.86419 0.188641 1 
53 1 34.2065 51.6327 -1.4036 7.99216 5 
54 1 31.5385 51.4876 -2.42026 5.12288 5 
55 1 27.2518 51.9427 -0.337446 11.1662 5 
56 1 40.6519 51.9417 -1.80063 6.60348 5 
57 1 84.3957 0.145315 0.0129163 7.2847 5 
93 1 0.624867 50.1497 -13.7215 7.56458e-05 1 
104 1 13.3517 51.3693 -14.6385 4.33621e-05 1 
106 1 11.6503 49.0716 -14.436 4.72717e-05 1 
108 1 9.64997 50.6717 -13.1405 7.30744e-05 1 
109 1 6.98767 50.762 -14.1828 4.70746e-05 1 
110 1 7.94889 48.3736 -12.9379 7.22014e-05 1 
111 1 5.28639 48.4645 -13.9804 4.73229e-05 1 
112 1 5.94888 49.972 -11.6378 0.000114466 1 
113 1 3.28663 50.0607 -12.6796 8.16701e-05 1 
114 1 4.24823 47.6733 -11.4374 0.000158852 1 
115 1 1.58445 47.7625 -12.476 0.000108797 1 
116 1 2.24717 49.2671 -10.1349 0.000377504 1 
117 1 0.542914 46.9657 -9.92844 0.000732832 1 
125 1 22.3805 51.8762 -14.0367 9.7034e-05 1 
127 1 20.6797 49.5789 -13.8332 0.000101915 1 
128 1 18.0155 49.6745 -14.8827 6.63502e-05 1 
129 1 18.6789 51.182 -12.5474 0.000103704 1 
130 1 16.0151 51.2764 -13.5933 6.31397e-05 1 
131 1 16.9779 48.884 -12.3446 0.000106935 1 
132 1 14.3138 48.9784 -13.3909 7.29313e-05 1 
133 1 14.9761 50.4872 -11.0561 0.000112511 1 
134 1 12.3129 50.5801 -12.0984 6.70644e-05 1 
135 1 13.2748 48.1886 -10.8531 0.000146349 1 
136 1 10.6117 48.2819 -11.8957 9.44729e-05 1 
137 1 11.2744 49.7923 -9.55994 0.000196859 1 
138 1 8.61092 49.8829 -10.5992 0.000270188 1 
139 1 9.57208 47.4925 -9.35818 0.000333209 1 
140 1 6.9103 47.5825 -10.3975 0.000217083 1 
141 1 7.5708 49.0932 -8.06167 0.00230401 1 
142 1 4.91181 49.1815 -9.09412 0.00105857 1 
143 1 5.87266 46.788 -7.85915 0.000743259 1 
144 1 3.21165 46.8787 -8.89976 0.0010178 1 
145 1 3.8804 48.3855 -6.55943 0.0100799 1 
146 1 1.20684 48.4635 -7.59638 0.00220821 1 
147 1 2.17975 46.0781 -6.37241 0.0120233 1 
148 1 0.163051 47.6401 -5.0609 0.0645084 1 
153 1 33.4014 50.7827 -14.6872 0.000201125 1 
155 1 63.5001 0.00678554 -13.4127 0.000452853 1 
156 1 29.709 50.0806 -13.2024 0.000500139 1 
157 1 27.045 50.1778 -14.2649 0.000314851 1 
158 1 27.7121 51.6786 -11.934 0.000972613 1 
159 1 25.0459 51.7786 -12.9871 0.000257136 1 
160 1 26.0118 49.3824 -11.7249 0.000869524 1 
161 1 23.3449 49.4818 -12.7817 0.000278914 1 
162 1 24.0098 50.9854 -10.4541 0.000621525 1 
163 1 21.3427 51.0848 -11.5001 0.000181999 1 
164 1 22.3068 48.6907 -10.246 0.00060245 1 
165 1 19.6421 48.7888 -11.296 0.000153345 1 
166 1 20.3015 50.2958 -8.96177 0.00116185 1 
167 1 17.64 50.3938 -10.0128 0.000378891 1 
168 1 18.6038 48.0043 -8.763 0.00175539 1 
169 1 15.939 48.095 -9.80941 0.000188699 1 
170 1 16.6015 49.6111 -7.48148 0.00452616 1 
171 1 13.9368 49.6989 -8.52138 0.000571238 1 
172 1 14.9031 47.3056 -7.27757 0.00603047 1 
173 1 12.2342 47.3992 -8.31742 0.000704508 1 
174 1 12.8984 48.9173 -5.99312 0.00988347 1 
175 1 10.2366 49.0059 -7.02684 0.00132301 1 
176 1 11.1833 46.611 -5.78231 0.0094042 1 
177 1 8.53159 46.7047 -6.82207 0.00256215 1 
178 1 9.19732 48.2385 -4.49733 0.0259189 1 
179 1 6.52956 48.2934 -5.52545 0.023823 1 
180 1 7.47675 45.9126 -4.29265 0.0646488 1 
181 1 4.83539 45.9841 -5.31855 0.0177391 1 
182 1 5.44487 47.4566 -2.97267 0.416699 1 
183 1 2.86669 47.5821 -4.04878 0.173204 1 
184 1 3.83124 45.1963 -2.72563 0.259351 1 
185 1 1.10635 45.2613 -3.87845 0.257579 1 
186 1 1.80664 46.6991 -1.69485 11.7438 5 
187 1 0.0544375 44.5329 -1.2592 1.91944 5 
190 1 42.4096 51.3068 -14.0734 0.000163061 1 
192 1 38.7169 50.6023 -12.5632 0.000228334 1 
193 1 36.0599 50.6909 -13.6234 0.000216369 1 
194 1 36.7289 52.192 -11.278 0.000589632 1 
195 1 34.0704 52.2828 -12.3466 0.000461488 1 
196 1 35.027 49.8958 -11.0606 0.000500072 1 
197 1 32.3702 49.986 -12.1326 0.000524105 1 
198 1 33.0389 51.4848 -9.79296 0.00151996 1 
199 1 30.3785 51.5799 -10.8714 0.00148953 1 
200 1 31.3386 49.1883 -9.5739 0.00149163 1 
201 1 28.6773 49.2826 -10.6554 0.00143007 1 
202 1 29.3467 50.7796 -8.33502 0.00531729 1 
203 1 26.6769 50.8794 -9.40156 0.00362919 1 
204 1 27.6425 48.4848 -8.10445 0.00525001 1 
205 1 24.9774 48.5897 -9.18903 0.00282481 1 
206 1 25.6382 50.0777 -6.86589 0.0176116 1 
207 1 22.9695 50.1946 -7.92684 0.00365403 1 
208 1 23.9433 47.8127 -6.66541 0.0271476 1 
209 1 21.2637 47.9077 -7.70965 0.00295117 1 
210 1 21.9267 49.4253 -5.38946 0.045238 1 
211 1 19.253 49.5109 -6.41008 0.0215977 1 
212 1 20.2313 47.1421 -5.16198 0.103012 1 
213 1 17.5806 47.2332 -6.24094 0.0676436 1 
214 1 18.2191 48.7519 -3.79831 1.56435 5 
215 1 15.5705 48.838 -4.96345 0.129587 1 
216 1 16.4734 46.424 -3.86177 5.72099 5 
217 1 13.8334 46.5215 -4.7804 0.0707163 1 
218 1 14.5155 47.978 -2.46489 7.17461 5 
219 1 11.8155 48.1677 -3.49334 0.170855 1 
220 1 12.6436 45.7833 -2.38039 6.82431 5 
221 1 10.0931 45.8331 -3.26426 0.218597 1 
222 1 10.8533 47.4286 -0.937915 6.70962 5 
223 1 8.13824 47.4438 -2.0427 6.81319 5 
224 1 9.06814 45.2544 -0.60732 9.7053 5 
225 1 6.4793 45.1892 -1.63673 2.04765 5 
226 1 4.50338 46.846 -0.234393 8.82852 5 
227 1 51.4331 51.8331 -13.4999 7.52885e-05 1 
228 1 48.7685 51.9215 -14.5415 5.27068e-05 1 
229 1 47.7305 51.1297 -11.9887 0.000185179 1 
230 1 45.0691 51.2191 -13.0277 0.000208183 1 
231 1 44.0318 50.4302 -10.4664 0.000881829 1 
232 1 41.3738 50.5159 -11.5093 0.000474844 1 
233 1 42.044 52.0223 -9.15569 0.00123536 1 
234 1 39.3874 52.1061 -10.2144 0.000564837 1 
235 1 40.3379 49.7269 -8.93984 0.00142006 1 
236 1 37.6822 49.8105 -9.9964 0.000442023 1 
237 1 38.3571 51.3191 -7.64824 0.00282514 1 
238 1 35.6944 51.3977 -8.71257 0.00387282 1 
239 1 36.6415 49.0202 -7.42864 0.00124396 1 
240 1 33.9919 49.1021 -8.49099 0.00156799 1 
241 1 34.6445 50.6063 -6.1303 0.0463999 1 
242 1 32.0009 50.6844 -7.23181 0.00719859 1 
243 1 32.9561 48.3155 -5.91126 0.0160917 1 
244 1 30.305 48.3925 -7.00652 0.00683194 1 
245 1 30.9509 49.8894 -4.6492 0.111373 1 
246 1 28.3172 49.9834 -5.8035 0.0368839 1 
247 1 29.2582 47.6172 -4.41169 0.11347 1 
248 1 26.5948 47.6996 -5.53541 0.0350586 1 
249 1 27.2859 49.2306 -3.28961 5.10748 5 
250 1 24.5986 49.2862 -4.2881 0.154 1 
251 1 25.5042 46.9549 -2.91153 3.93383 5 
252 1 22.8927 47.0633 -4.2133 0.445164 1 
253 1 23.5046 48.3859 -1.70888 4.1935 5 
254 1 20.8771 48.7556 -2.7891 1.03949 1 
255 1 21.6918 46.3002 -1.93457 7.97929 5 
256 1 19.1015 46.3531 -2.76933 3.77441 5 
257 1 19.5585 47.988 -0.531411 7.11939 5 
258 1 16.8363 46.9662 -1.28677 13.0379 5 
259 1 15.9162 44.6647 -0.218371 4.29961 5 
260 1 60.4569 52.3639 -12.8951 0.000131234 1 
261 1 56.7626 51.6608 -11.4058 0.000216041 1 
262 1 54.0988 51.746 -12.4556 0.000148522 1 
263 1 53.0634 50.9519 -9.91755 0.00058486 1 
264 1 50.3958 51.0398 -10.955 0.000270104 1 
265 1 49.358 50.2419 -8.41407 0.00140029 1 
266 1 46.6916 50.3373 -9.43377 0.000981594 1 
267 1 47.3622 51.8418 -7.09854 0.00716781 1 
268 1 44.6998 51.9331 -8.10627 0.0044444 1 
269 1 45.65 49.5384 -6.87801 0.00910285 1 
270 1 42.995 49.6445 -7.90369 0.00492879 1 
271 1 43.6613 51.147 -5.52953 0.0362115 1 
272 1 41.0157 51.2425 -6.5846 0.00800982 1 
273 1 41.9765 48.873 -5.3364 0.059344 1 
274 1 39.2988 48.933 -6.36962 0.0093193 1 
275 1 39.968 50.4498 -4.0613 0.117478 1 
276 1 37.3108 50.5322 -5.10239 0.0245909 1 
277 1 38.2516 48.148 -3.7622 0.175826 1 
278 1 35.597 48.2356 -4.85564 0.0230314 1 
279 1 36.2233 49.8191 -2.57807 0.717269 5 
280 1 33.587 49.8241 -3.48209 5.4802 5 
281 1 34.533 47.3849 -2.2997 6.32255 5 
282 1 31.8842 47.5788 -3.3057 5.31919 5 
283 1 29.8441 49.2576 -1.89013 10.0571 5 
284 1 30.6707 46.7863 -0.929283 10.2489 5 
285 1 28.0791 46.8917 -1.81411 6.87883 5 
286 1 27.2116 49.2027 -0.528561 10.894 5 
287 1 23.855 45.558 -0.504468 10.7903 5 
288 1 65.7716 52.1861 -10.8046 0.000359448 1 
289 1 63.1134 52.276 -11.8441 0.000324136 1 
290 1 62.0752 51.4893 -9.29379 0.00226354 1 
291 1 59.4228 51.5758 -10.3517 0.000426664 1 
292 1 58.3912 50.7868 -7.81686 0.00348378 1 
293 1 55.728 50.8684 -8.86881 0.000636508 1 
294 1 88.4947 0.0170519 -6.52691 0.00810039 1 
295 1 54.6881 50.0659 -6.33907 0.00534267 1 
296 1 52.0289 50.1514 -7.3892 0.00398868 1 
297 1 52.6886 51.6633 -5.06822 0.0136715 1 
298 1 50.0308 51.7461 -6.09646 0.00810276 1 
299 1 51.0076 49.3365 -4.87458 0.0548319 1 
300 1 48.323 49.432 -5.87669 0.0107262 1 
301 1 49.0103 50.9124 -3.59568 0.173589 1 
302 1 46.318 51.0175 -4.58062 0.0853659 1 
303 1 47.2722 48.65 -3.32041 0.057758 1 
304 1 44.6169 48.7507 -4.31496 1.41796 5 
305 1 45.2829 50.1489 -1.96025 6.30672 5 
306 1 42.671 50.2943 -2.87376 1.84145 5 
307 1 43.3492 48.2673 -0.662102 11.7823 5 
308 1 40.969 48.1579 -2.81875 2.31175 5 
309 1 38.7477 49.7512 -1.50714 6.84187 5 
310 1 37.1258 47.435 -1.12225 2.66994 5 
311 1 34.7145 49.2562 -0.423813 9.8894 5 
312 1 71.0929 51.9972 -8.72768 0.000508883 1 
313 1 68.4313 52.0925 -9.76634 0.000354349 1 
314 1 67.3941 51.3051 -7.23174 0.00205072 1 
315 1 64.7342 51.4001 -8.26866 0.00248151 1 
316 1 63.6971 50.6139 -5.75505 0.0312364 1 
317 1 61.0359 50.7008 -6.73147 0.0243035 1 
318 1 61.7101 52.247 -4.38168 0.143209 1 
319 1 59.058 52.2888 -5.44685 0.0125305 1 
320 1 59.9989 49.8895 -4.14151 0.256905 1 
321 1 57.3657 50.0016 -5.30638 0.0462325 1 
322 1 58.0096 51.4948 -2.91737 0.172745 1 
323 1 55.3393 51.5869 -4.0353 0.0625384 1 
324 1 56.3057 49.2302 -2.87363 0.537874 1 
325 1 53.6605 49.2554 -3.77665 0.14945 1 
326 1 54.2084 50.8718 -1.43592 2.98647 5 
327 1 51.7022 50.8357 -2.5713 7.00953 5 
328 1 52.4735 48.516 -1.22532 5.56385 5 
329 1 49.9472 48.6455 -2.32767 6.36331 5 
330 1 46.2499 47.8337 -0.811214 11.18 5 
331 1 76.4233 51.8051 -6.64957 0.00488812 1 
332 1 73.7544 51.8961 -7.68213 0.00240725 1 
333 1 72.7066 51.0983 -5.13142 0.0582581 1 
334 1 70.0518 51.2038 -6.19668 0.00811153 1 
335 1 69.054 50.3838 -3.65288 0.0872754 1 
336 1 66.3615 50.5188 -4.70432 0.0451086 1 
337 1 67.083 51.9231 -2.30476 4.99918 5 
338 1 64.3451 52.0674 -3.3985 0.346467 1 
339 1 65.3081 49.788 -2.07153 6.61949 5 
340 1 62.6843 49.8446 -3.26843 0.396067 1 
341 1 63.3301 51.2692 -0.627721 10.6236 5 
342 1 60.6926 51.4657 -1.92245 5.31997 5 
343 1 61.5581 49.0513 -0.946203 9.90562 5 
344 1 58.8243 49.1616 -1.4997 4.61038 5 
345 1 -25.465 52.2685 -6.02782 0.038199 1 
346 1 3.96843 0.00930346 -7.11218 0.0263597 1 
347 1 -29.1785 51.5766 -4.6214 0.178583 1 
348 1 79.0801 51.6708 -5.61277 0.0467723 1 
349 1 78.0902 50.8481 -3.02212 0.322022 1 
350 1 75.3862 51.0212 -4.13496 0.165942 1 
351 1 74.3988 50.444 -1.44302 6.29989 5 
352 1 71.6754 50.1502 -2.50166 4.86507 5 
353 1 72.1257 51.7031 -0.383229 6.93257 5 
354 1 69.6362 51.9474 -1.33239 3.06775 5 
355 1 68.071 49.5059 -1.14253 8.23546 5 
356 1 -20.1461 52.192 -3.87232 0.186888 1 
357 1 -22.8063 52.2015 -4.9389 0.0595756 1 
358 1 -23.9296 51.4847 -2.4257 5.13199 5 
359 1 -26.5478 51.5106 -3.46841 2.26717 5 
360 1 -28.2121 51.9431 -0.34131 11.1292 5 
361 1 -30.1281 50.8443 -2.07445 5.71096 5 
362 1 -14.8505 51.9144 -1.81377 6.40863 5 
363 1 -17.5574 52.0583 -2.75732 0.324911 1 
364 1 -21.2623 51.6253 -1.41144 8.00744 5 
365 1 -1.03986 52.3065 0.144619 9.91291 5 
507 1 0.923129 46.258 -14.8187 4.22007e-05 1 
545 1 9.94947 46.7738 -14.2315 5.16617e-05 1 
547 1 8.24952 44.4761 -14.0253 5.63014e-05 1 
549 1 6.24875 46.0749 -12.7341 8.50209e-05 1 
550 1 3.58561 46.1666 -13.7764 6.12201e-05 1 
551 1 4.54952 43.7768 -12.5279 9.99481e-05 1 
552 1 1.8859 43.8691 -13.5706 7.913e-05 1 
553 1 2.54745 45.3737 -11.2332 0.000246612 1 
554 1 -0.116 45.4653 -12.2701 0.000178589 1 
555 1 0.84864 43.0763 -11.0248 0.000332945 1 
588 1 20.9792 45.6822 -14.9069 0.000141787 1 
590 1 18.9792 47.2817 -13.6276 0.000130961 1 
591 1 16.3146 47.3771 -14.6781 7.14594e-05 1 
592 1 17.2784 44.985 -13.4198 0.000152079 1 
593 1 14.614 45.0802 -14.4713 7.78812e-05 1 
594 1 15.2768 46.586 -12.1387 0.000113823 1 
595 1 12.6128 46.6805 -13.1857 7.7246e-05 1 
596 1 13.5761 44.2891 -11.9299 0.000168802 1 
597 1 10.9127 44.3831 -12.9781 8.23944e-05 1 
598 1 11.5734 45.89 -10.6461 0.000140861 1 
599 1 8.91123 45.9828 -11.6904 0.000114291 1 
600 1 9.87445 43.592 -10.4354 0.000251033 1 
601 1 7.21287 43.6843 -11.4823 0.000145257 1 
602 1 7.87245 45.1909 -9.14948 0.000385975 1 
603 1 5.21193 45.2821 -10.1937 0.000291692 1 
604 1 6.1782 42.8926 -8.93724 0.000930635 1 
605 1 3.51403 42.9843 -9.98499 0.000360191 1 
606 1 4.17841 44.4867 -7.65501 0.00229024 1 
607 1 1.50921 44.5778 -8.69149 0.00170767 1 
608 1 2.48261 42.1945 -7.43974 0.00142722 1 
609 1 0.465566 43.7771 -6.15083 0.0207167 1 
636 1 31.7016 48.4876 -14.4754 0.000222602 1 
638 1 30.0019 46.1945 -14.2639 0.000217496 1 
640 1 28.0091 47.7863 -12.9912 0.000457812 1 
641 1 25.3448 47.8823 -14.057 0.000299342 1 
642 1 26.3093 45.4939 -12.7812 0.000426325 1 
643 1 23.6442 45.5874 -13.8481 0.000257662 1 
644 1 24.3109 47.0891 -11.5157 0.000778442 1 
645 1 21.6441 47.1855 -12.5743 0.000250054 1 
646 1 22.6088 44.7933 -11.3054 0.000788884 1 
647 1 19.9431 44.8883 -12.3645 0.000400875 1 
648 1 20.6063 46.3946 -10.0386 0.000730353 1 
649 1 17.9419 46.4904 -11.0904 0.000405116 1 
650 1 18.9024 44.0925 -9.82403 0.00257124 1 
651 1 16.2393 44.1928 -10.8797 0.000493881 1 
652 1 16.903 45.7008 -8.55969 0.00454216 1 
653 1 14.2362 45.7958 -9.60061 0.000500141 1 
654 1 15.1923 43.4001 -8.34054 0.00811068 1 
655 1 12.5357 43.4988 -9.38923 0.00135358 1 
656 1 13.1805 45.0028 -7.06492 0.0111494 1 
657 1 10.5287 45.0995 -8.106 0.00085228 1 
658 1 11.4981 42.7097 -6.84685 0.0119811 1 
659 1 8.83634 42.8009 -7.88812 0.0024871 1 
660 1 9.47078 44.3082 -5.56154 0.0231634 1 
661 1 6.83362 44.3969 -6.6047 0.00692185 1 
662 1 7.81055 42.0235 -5.31589 0.0225135 1 
663 1 5.15372 42.1097 -6.37948 0.00300796 1 
664 1 5.81753 43.6372 -4.0215 0.023772 1 
665 1 3.15788 43.703 -5.1128 0.0190043 1 
666 1 4.13083 41.3251 -3.83126 0.0269373 1 
667 1 1.46289 41.4098 -4.89467 0.0129242 1 
668 1 2.14245 42.9836 -2.59328 0.314845 1 
669 1 0.47146 40.5945 -2.39473 3.30572 5 
694 1 40.7072 49.0121 -13.8586 0.000183406 1 
695 1 38.05 49.1005 -14.9112 0.000153131 1 
696 1 39.0051 46.718 -13.6425 0.000246682 1 
697 1 36.3492 46.8068 -14.697 0.00019429 1 
698 1 37.0147 48.307 -12.3455 0.000373196 1 
699 1 34.3594 48.396 -13.4085 0.00026726 1 
700 1 35.3136 46.0141 -12.1279 0.000468783 1 
701 1 32.6594 46.1035 -13.1941 0.000295947 1 
702 1 33.3262 47.6013 -10.8415 0.000621923 1 
703 1 30.67 47.692 -11.9171 0.000524969 1 
704 1 31.6268 45.3118 -10.6234 0.00067202 1 
705 1 28.9704 45.4018 -11.7035 0.000515216 1 
706 1 29.6375 46.8981 -9.35217 0.00147506 1 
707 1 26.9774 46.9923 -10.4413 0.00118543 1 
708 1 27.9388 44.6147 -9.13729 0.00165369 1 
709 1 25.2775 44.7028 -10.2334 0.00141742 1 
710 1 25.9446 46.2051 -7.89201 0.00463731 1 
711 1 23.274 46.2995 -8.98255 0.00344699 1 
712 1 24.2427 43.9163 -7.69729 0.00962607 1 
713 1 21.5648 43.996 -8.76932 0.00466609 1 
714 1 22.2267 45.5078 -6.47334 0.0309872 1 
715 1 19.5661 45.6094 -7.51444 0.0114424 1 
716 1 20.4917 43.1927 -6.23539 0.0412376 1 
717 1 17.8465 43.2926 -7.28255 0.0325265 1 
718 1 18.4967 44.8005 -5.03787 0.197111 1 
719 1 15.8396 44.8893 -6.05272 0.107681 1 
720 1 16.7881 42.5398 -4.64659 0.546057 1 
721 1 14.1552 42.6453 -5.76057 0.0408597 1 
722 1 14.7582 44.2045 -3.42521 2.61209 5 
723 1 12.0927 44.203 -4.52801 0.175958 1 
724 1 13.0643 41.9241 -3.18961 0.659841 1 
725 1 10.4705 41.9556 -4.28918 0.17224 1 
726 1 10.9331 43.4218 -1.75331 3.52247 5 
727 1 8.43487 43.5778 -2.93799 0.258044 1 
728 1 9.42992 41.0922 -1.92915 4.49235 5 
729 1 6.78723 41.2977 -2.76653 0.201771 1 
730 1 4.73445 42.8814 -1.48722 0.297167 1 
731 1 5.83694 40.6447 -0.285512 9.2181 5 
732 1 3.12634 40.5265 -1.28423 4.80257 5 
750 1 53.4305 50.2387 -14.795 4.12498e-05 1 
752 1 51.727 47.9408 -14.5877 3.28092e-05 1 
754 1 49.7287 49.5354 -13.291 6.79656e-05 1 
755 1 47.0652 49.6259 -14.3311 4.68614e-05 1 
756 1 48.0253 47.2396 -13.0803 4.68305e-05 1 
757 1 45.3621 47.3308 -14.1191 5.73249e-05 1 
758 1 46.0271 48.8349 -11.7779 0.000171132 1 
759 1 43.3656 48.9243 -12.8139 0.000229972 1 
760 1 44.3234 46.5398 -11.5637 0.000192574 1 
761 1 41.6622 46.6295 -12.5977 0.000309211 1 
762 1 42.3269 48.1343 -10.2514 0.000805252 1 
763 1 39.6702 48.2207 -11.2924 0.000366325 1 
764 1 40.6221 45.8389 -10.0292 0.00100714 1 
765 1 37.9669 45.9257 -11.0715 0.000591117 1 
766 1 38.6324 47.4292 -8.72241 0.000634739 1 
767 1 35.9779 47.5127 -9.77285 0.00109239 1 
768 1 36.9277 45.132 -8.48993 0.00210793 1 
769 1 34.2775 45.2218 -9.54923 0.00119165 1 
770 1 34.9385 46.7178 -7.18884 0.00424546 1 
771 1 32.2928 46.8093 -8.26482 0.00183363 1 
772 1 33.2414 44.4307 -6.95717 0.00757833 1 
773 1 30.5956 44.5282 -8.04224 0.0016678 1 
774 1 31.2608 46.0358 -5.67229 0.0160966 1 
775 1 28.6006 46.1169 -6.77165 0.00578448 1 
776 1 29.559 43.7514 -5.47079 0.0158802 1 
777 1 26.8976 43.8367 -6.56826 0.0109874 1 
778 1 27.5249 45.3536 -4.18539 0.0571425 1 
779 1 24.9072 45.4379 -5.35753 0.0799578 1 
780 1 25.842 43.0784 -3.98858 0.318369 1 
781 1 23.173 43.1153 -5.20187 0.120435 1 
782 1 23.7626 44.6274 -2.98604 5.99159 5 
783 1 21.1163 44.6837 -4.0058 0.308784 1 
784 1 22.0223 42.4307 -2.59636 1.75808 5 
785 1 19.3786 42.4279 -3.59979 5.96939 5 
786 1 19.95 44.0653 -1.34088 4.80171 5 
787 1 17.4115 44.169 -2.42682 7.75547 5 
788 1 15.5309 42.0658 -1.85147 7.05013 5 
789 1 13.418 43.7722 -0.823476 5.76647 5 
790 1 12.4401 41.0938 -0.593204 9.30731 5 
805 1 62.4511 50.765 -14.1927 8.37182e-05 1 
807 1 60.7506 48.4655 -13.9928 5.875e-05 1 
809 1 58.7559 50.064 -12.6991 0.000119051 1 
810 1 56.0942 50.1508 -13.748 6.87893e-05 1 
811 1 57.0533 47.762 -12.4976 9.82068e-05 1 
812 1 54.3907 47.8505 -13.5432 5.33519e-05 1 
813 1 55.0582 49.3571 -11.2064 0.00019548 1 
814 1 52.3938 49.4451 -12.2507 0.000139806 1 
815 1 53.3535 47.0545 -10.9981 0.000241489 1 
816 1 50.6895 47.1469 -12.0405 0.000112731 1 
817 1 51.3566 48.6472 -9.70838 0.000678335 1 
818 1 48.6901 48.7414 -10.7424 0.000311086 1 
819 1 49.6519 46.3517 -9.49128 0.000469447 1 
820 1 46.9883 46.4472 -10.53 0.000212715 1 
821 1 47.6505 47.9449 -8.19092 0.00219252 1 
822 1 44.9905 48.045 -9.22781 0.00194106 1 
823 1 45.9565 45.6555 -7.98127 0.00264235 1 
824 1 43.2836 45.7481 -9.00779 0.00198957 1 
825 1 43.9617 47.2569 -6.69494 0.0290079 1 
826 1 41.2898 47.3476 -7.68237 0.0046099 1 
827 1 42.2447 44.9642 -6.44105 0.0120889 1 
828 1 39.5791 45.0454 -7.45345 0.00335473 1 
829 1 40.2432 46.5571 -5.11984 0.0306869 1 
830 1 37.5936 46.6439 -6.14795 0.00522583 1 
831 1 38.5345 44.2466 -4.86126 0.0244255 1 
832 1 35.8888 44.3365 -5.89517 0.0155281 1 
833 1 36.5642 45.8666 -3.59417 0.128579 1 
834 1 33.8897 45.9184 -4.59415 0.0649136 1 
835 1 34.8647 43.5311 -3.25259 0.404306 1 
836 1 32.2224 43.6763 -4.32442 0.0938072 1 
837 1 32.8523 45.2412 -1.87236 1.25854 5 
838 1 30.1806 45.2388 -3.14421 0.201728 1 
839 1 31.1717 42.9432 -1.72757 1.52145 5 
840 1 28.5098 42.9983 -2.8941 0.27004 1 
841 1 26.348 44.6953 -1.60252 6.0503 5 
842 1 27.1535 42.3094 -0.535429 10.7998 5 
843 1 24.4859 42.4969 -1.26363 7.36222 5 
844 1 20.6195 41.6114 -0.431894 14.1087 5 
853 1 73.4711 49.6749 -14.8885 7.85939e-05 1 
855 1 71.4713 51.2778 -13.5989 8.67066e-05 1 
856 1 68.8094 51.3714 -14.6441 6.50911e-05 1 
857 1 69.7707 48.9789 -13.3977 9.89576e-05 1 
858 1 67.1087 49.0726 -14.443 6.63613e-05 1 
859 1 67.7706 50.5823 -12.1054 0.000127586 1 
860 1 65.1101 50.6747 -13.1475 0.000116695 1 
861 1 66.0698 48.2826 -11.904 0.000147905 1 
862 1 63.4098 48.3749 -12.9469 9.20963e-05 1 
863 1 64.0708 49.8866 -10.6074 0.000430681 1 
864 1 61.4142 49.9767 -11.6487 0.000303206 1 
865 1 62.3709 47.5845 -10.4064 0.000272791 1 
866 1 59.7142 47.675 -11.451 0.000184512 1 
867 1 60.3782 49.1887 -9.10574 0.00180151 1 
868 1 57.7206 49.2725 -10.1602 0.00045469 1 
869 1 58.6785 46.8832 -8.91263 0.000785613 1 
870 1 56.0154 46.9655 -9.95523 0.00058648 1 
871 1 56.6846 48.4766 -7.62985 0.00294331 1 
872 1 54.0214 48.5574 -8.66749 0.000834215 1 
873 1 54.9712 46.1598 -7.40859 0.00535134 1 
874 1 52.3153 46.2546 -8.4484 0.00124153 1 
875 1 52.9842 47.7529 -6.12211 0.00652163 1 
876 1 50.3183 47.8439 -7.16376 0.00529909 1 
877 1 51.2735 45.4592 -5.88579 0.0114626 1 
878 1 48.6177 45.5625 -6.93329 0.0023087 1 
879 1 49.286 47.0516 -4.58699 0.0348392 1 
880 1 46.6124 47.1492 -5.62427 0.0326749 1 
881 1 47.5687 44.806 -4.37486 0.0509951 1 
882 1 44.9362 44.8745 -5.43771 0.0601039 1 
883 1 45.4751 46.4199 -2.98208 1.62546 5 
884 1 42.9427 46.5063 -4.18757 6.80612 5 
885 1 43.9301 44.1338 -2.9179 0.53448 1 
886 1 41.2099 44.177 -3.84874 0.185651 1 
887 1 42.0465 45.8799 -1.7263 7.31826 5 
888 1 39.1878 45.769 -2.55621 0.269824 1 
889 1 40.0545 43.4547 -1.28651 3.24532 5 
890 1 37.4694 43.386 -2.25041 6.11211 5 
891 1 35.6204 45.0715 -1.04356 5.4027 5 
898 1 -28.416 50.1774 -14.2702 0.000323394 1 
900 1 -30.4153 51.7785 -12.9925 0.000269752 1 
901 1 77.8343 51.8766 -14.0418 0.000108553 1 
902 1 78.7983 49.4812 -12.7874 0.000290363 1 
903 1 76.1342 49.5788 -13.8389 0.000115373 1 
904 1 76.7964 51.0847 -11.5059 0.000198739 1 
905 1 74.1338 51.1826 -12.553 0.000126095 1 
906 1 75.0968 48.788 -11.3025 0.000167468 1 
907 1 72.4336 48.8838 -12.3514 0.000131258 1 
908 1 73.0953 50.3936 -10.0198 0.000436387 1 
909 1 70.4325 50.4882 -11.0634 0.000167598 1 
910 1 71.3952 48.0936 -9.81794 0.000229754 1 
911 1 68.7317 48.1882 -10.8617 0.000207457 1 
912 1 69.3941 49.6979 -8.53202 0.00060042 1 
913 1 66.7317 49.7934 -9.57004 0.000286019 1 
914 1 67.6905 47.3975 -8.32801 0.000829607 1 
915 1 65.029 47.4928 -9.36757 0.000482568 1 
916 1 65.6924 49.0046 -7.04086 0.00182408 1 
917 1 63.0287 49.0973 -8.07099 0.00311383 1 
918 1 63.9862 46.707 -6.83054 0.00288566 1 
919 1 61.331 46.7929 -7.86551 0.00082176 1 
920 1 61.9839 48.3026 -5.53108 0.0251873 1 
921 1 59.3447 48.3995 -6.56781 0.0119335 1 
922 1 60.2839 45.9955 -5.32171 0.021382 1 
923 1 57.6443 46.0886 -6.38166 0.00756354 1 
924 1 58.3091 47.6182 -4.04838 0.145258 1 
925 1 55.6419 47.6648 -5.11476 0.0283423 1 
926 1 56.5862 45.2758 -3.87909 0.108548 1 
927 1 53.9057 45.3422 -4.84435 0.0566004 1 
928 1 54.5402 46.8343 -2.60975 0.229549 1 
929 1 51.9217 46.9432 -3.56114 0.0760697 1 
930 1 52.8608 44.4684 -2.16248 5.04994 5 
931 1 50.2777 44.6513 -3.276 0.409179 1 
932 1 48.2524 46.2902 -2.06436 3.75038 5 
933 1 46.5352 44.0449 -1.84762 7.21069 5 
934 1 42.6512 43.5159 -0.605685 10.4922 5 
939 1 -19.402 50.6903 -13.627 0.000198305 1 
940 1 -22.06 50.7824 -14.6915 0.00019972 1 
941 1 -21.3936 52.2823 -12.3519 0.000451186 1 
942 1 8.03749 0.00660885 -13.4179 0.000455521 1 
943 1 -23.0933 49.9848 -12.1381 0.000514986 1 
944 1 -25.7532 50.0799 -13.2078 0.000503354 1 
945 1 -25.0859 51.5791 -10.8774 0.00148181 1 
946 1 -27.7505 51.6781 -11.9397 0.000985294 1 
947 1 -26.7861 49.2812 -10.6614 0.00141911 1 
948 1 -29.45 49.3814 -11.7307 0.00088012 1 
949 1 -28.7863 50.8783 -9.40748 0.00364146 1 
950 1 79.4621 50.9847 -10.46 0.000641769 1 
951 1 80.4293 48.588 -9.1949 0.00281696 1 
952 1 77.7602 48.6894 -10.2521 0.000599203 1 
953 1 78.4224 50.193 -7.93303 0.00367311 1 
954 1 75.7556 50.2947 -8.96842 0.00113927 1 
955 1 76.7177 47.9054 -7.71596 0.0028529 1 
956 1 74.0591 48.0022 -8.77048 0.00174556 1 
957 1 74.7089 49.5083 -6.41774 0.0210182 1 
958 1 72.0586 49.6087 -7.49106 0.00482456 1 
959 1 73.0367 47.2296 -6.24914 0.0671196 1 
960 1 70.3596 47.3024 -7.2882 0.00601504 1 
961 1 71.0301 48.8321 -4.97599 0.133843 1 
962 1 68.3565 48.9128 -6.00739 0.0118114 1 
963 1 69.2883 46.5179 -4.79202 0.0703168 1 
964 1 66.638 46.609 -5.79398 0.0095796 1 
965 1 67.2687 48.1666 -3.50646 0.190948 1 
966 1 64.6545 48.2429 -4.50924 0.0431871 1 
967 1 65.5469 45.8284 -3.27806 0.258503 1 
968 1 62.9254 45.9158 -4.30543 0.0822274 1 
969 1 63.5863 47.4478 -2.08179 6.27511 5 
970 1 60.8839 47.4709 -2.9889 0.459267 1 
971 1 61.9165 45.2127 -1.64688 2.18693 5 
972 1 59.2643 45.2214 -2.71655 0.241433 1 
973 1 59.8861 46.8964 -0.230054 8.86174 5 
974 1 57.2354 46.7763 -1.6841 5.9099 5 
975 1 55.5183 44.547 -1.24111 2.51027 5 
976 1 -6.69166 51.922 -14.5175 6.05137e-05 1 
978 1 -10.3895 51.2202 -13.0134 0.000122981 1 
979 1 -13.0492 51.3072 -14.068 9.46889e-05 1 
980 1 -14.0876 50.515 -11.5071 0.000257408 1 
981 1 -16.7451 50.6013 -12.5652 0.000167915 1 
982 1 -16.0793 52.1038 -10.2188 0.000348755 1 
983 1 -18.7365 52.1907 -11.2832 0.000529636 1 
984 1 -17.7837 49.8077 -10.0012 0.000308466 1 
985 1 -20.4378 49.894 -11.0661 0.000463705 1 
986 1 -19.7752 51.3951 -8.71981 0.0036951 1 
987 1 -22.4278 51.4834 -9.79945 0.00147557 1 
988 1 -21.4758 49.0992 -8.49766 0.00147662 1 
989 1 -24.1268 49.1863 -9.58019 0.0014611 1 
990 1 -23.4677 50.6824 -7.23851 0.00704667 1 
991 1 -26.1187 50.7782 -8.34119 0.00527238 1 
992 1 -25.1617 48.3898 -7.01295 0.00683652 1 
993 1 -27.8215 48.4828 -8.11033 0.00520456 1 
994 1 -27.1483 49.9814 -5.80915 0.0364799 1 
995 1 -29.8246 50.0759 -6.87154 0.0176021 1 
996 1 -28.8689 47.697 -5.54071 0.0347426 1 
997 1 79.3955 47.8104 -6.67088 0.0269805 1 
998 1 80.051 49.2837 -4.29287 0.15414 1 
999 1 77.3809 49.4228 -5.39563 0.0454286 1 
1000 1 78.3459 47.0607 -4.21801 0.443822 1 
1001 1 75.6859 47.1391 -5.168 0.102641 1 
1002 1 76.3331 48.7528 -2.79471 1.03991 1 
1003 1 73.6774 48.7477 -3.80732 1.53951 5 
1004 1 74.556 46.3505 -2.77456 3.75906 5 
1005 1 71.9291 46.4199 -3.86979 5.722 5 
1006 1 72.2899 46.973 -1.29672 13.1075 5 
1007 1 69.9687 47.9731 -2.48069 7.15479 5 
1008 1 71.3659 44.6728 -0.224452 4.29813 5 
1009 1 68.1004 45.7792 -2.39203 6.86675 5 
1010 1 66.3191 47.4208 -0.966719 6.83925 5 
1011 1 64.5085 45.2829 -0.603694 9.6192 5 
1012 1 -1.37289 51.7428 -12.416 0.000241806 1 
1013 1 -4.03194 51.8326 -13.4653 9.77909e-05 1 
1014 1 -5.07119 51.0432 -10.9066 0.000259748 1 
1015 1 -7.73017 51.1325 -11.9589 0.000175231 1 
1016 1 -8.77083 50.3442 -9.39791 0.000763614 1 
1017 1 -11.4286 50.4311 -10.4539 0.000519323 1 
1018 1 -10.7668 51.9331 -8.09351 0.000674136 1 
1019 1 -13.4228 52.0195 -9.15668 0.000407837 1 
1020 1 -12.4684 49.6435 -7.89468 0.00394962 1 
1021 1 -15.1279 49.723 -8.94193 0.000849781 1 
1022 1 -14.46 51.2334 -6.59348 0.00447023 1 
1023 1 -17.1159 51.3141 -7.65609 0.0021994 1 
1024 1 -16.1722 48.9264 -6.37352 0.00942998 1 
1025 1 -18.8283 49.0159 -7.43512 0.00115921 1 
1026 1 -18.1662 50.5264 -5.11049 0.0244336 1 
1027 1 -20.8279 50.603 -6.13809 0.0455307 1 
1028 1 -19.877 48.2307 -4.86342 0.0222227 1 
1029 1 -22.514 48.3118 -5.91858 0.0157025 1 
1030 1 -21.8865 49.8203 -3.49081 5.49661 5 
1031 1 -24.5181 49.8868 -4.65538 0.110504 1 
1032 1 -23.5867 47.5748 -3.31228 5.34498 5 
1033 1 -26.2085 47.6139 -4.41758 0.112134 1 
1034 1 -25.6194 49.254 -1.89387 10.0427 5 
1035 1 -28.1773 49.2276 -3.29371 5.09988 5 
1036 1 -27.3847 46.8892 -1.81746 6.88089 5 
1037 1 80.9555 46.9515 -2.91638 3.91589 5 
1038 1 -28.2475 49.2026 -0.53155 10.4088 5 
1039 1 78.9585 48.3841 -1.7119 4.18458 5 
1040 1 79.3086 45.5582 -0.507604 10.8093 5 
1041 1 77.1458 46.2977 -1.9385 7.98012 5 
1042 1 75.0148 47.9855 -0.537209 7.13642 5 
1043 1 -2.41461 50.9503 -9.85793 0.0010021 1 
1044 1 -3.4594 50.1545 -7.29782 0.00522652 1 
1045 1 -6.11222 50.2547 -8.34908 0.000429743 1 
1046 1 -5.45192 51.7547 -5.98728 0.00537207 1 
1047 1 -8.11198 51.8482 -7.04017 0.00112043 1 
1048 1 -7.15758 49.4637 -5.79956 0.00487823 1 
1049 1 -9.81508 49.554 -6.8316 0.00686067 1 
1050 1 -9.16712 51.068 -4.47528 0.0262192 1 
1051 1 -11.8121 51.143 -5.52503 0.0198483 1 
1052 1 -10.8479 48.7605 -4.26728 6.93775 5 
1053 1 -13.491 48.8667 -5.33114 0.0587247 1 
1054 1 -12.8071 50.281 -2.87281 1.90283 5 
1055 1 -15.5132 50.4372 -4.07031 0.119787 1 
1056 1 -14.5089 48.1506 -2.81267 2.40466 5 
1057 1 -17.2262 48.1402 -3.76866 0.172563 1 
1058 1 -16.7354 49.7389 -1.51645 6.96441 5 
1059 1 -19.2547 49.8112 -2.58658 0.699199 5 