ITEM: TIMESTEP
0
ITEM: NUMBER OF ATOMS
12580
ITEM: BOX BOUNDS xy xz yz pp pp ss
-1.8698109195900000e+02 5.3423169131000002e+01 -1.8698109195900000e+02
0.0000000000000000e+00 1.3201384870499999e+02 0.0000000000000000e+00
-8.6740411997719534e+01 8.5244391567130180e+01 0.0000000000000000e+00
ITEM: ATOMS id type x y z c_csym c_cna 
4 1 5.01477 0.410774 -1.7052 1.85167 5 
5 1 2.37625 1.37358 -2.45303 6.04144 5 
112 1 6.34378 20.5699 -0.789637 5.8777 5 
7 1 2.59412 3.92734 -1.5758 6.06114 5 
8 1 0.183644 4.89948 -2.4417 1.23559 5 
9 1 0.580962 7.70091 -1.31046 9.43038 5 
12 1 17.6053 0.689084 -0.996513 8.50457 5 
15 1 14.901 1.92864 -1.75113 2.32401 5 
16 1 12.5687 0.322206 -1.13912 6.95073 5 
17 1 12.2771 2.75482 -2.51822 0.794776 5 
18 1 12.7094 5.42308 -1.56458 7.90135 5 
20 1 9.9733 6.35597 -1.76776 8.70236 5 
21 1 10.8617 8.83947 -1.00307 10.6331 5 
23 1 7.98821 9.26671 -1.54769 9.14559 5 
25 1 5.31743 12.9932 -1.72726 5.76458 5 
27 1 3.57662 16.4286 -1.37027 6.50923 5 
30 1 11.7147 0.196639 -3.76725 0.0773078 1 
31 1 9.8424 1.34888 -1.8336 6.58536 5 
32 1 9.09247 1.05035 -4.53314 0.0778448 1 
33 1 9.67972 3.62683 -3.35195 0.538124 1 
34 1 7.20783 2.06878 -2.4361 4.82778 5 
35 1 7.97591 4.51112 -1.49152 10.009 5 
36 1 7.02174 4.35184 -4.21144 0.195917 1 
37 1 7.43514 6.9353 -2.96201 1.94026 5 
38 1 5.24801 5.36324 -2.4338 4.87192 5 
39 1 5.26304 8.05737 -1.25976 7.61436 5 
40 1 4.79696 7.79879 -3.9675 0.355461 1 
41 1 5.32962 10.3964 -2.73128 5.88669 5 
42 1 2.94143 9.05655 -2.14496 8.08729 5 
44 1 2.7125 11.2869 -3.74075 5.86124 5 
45 1 3.04634 13.9052 -2.6919 5.48113 5 
46 1 0.848977 12.411 -1.97039 6.1466 5 
48 1 0.497697 14.7331 -3.55586 0.350918 1 
49 1 1.02983 17.4264 -2.12422 0.889099 1 
50 1 6.509 1.82485 -5.32081 0.0562645 1 
51 1 4.17242 0.302781 -4.53749 0.0749083 1 
52 1 4.6304 2.81271 -3.45842 0.436367 1 
53 1 3.89951 2.65106 -6.19583 0.0131961 1 
54 1 4.34509 5.21457 -5.04943 0.113191 1 
55 1 2.04371 3.73595 -4.29316 0.18071 1 
56 1 2.55989 6.35654 -2.99011 2.66071 5 
57 1 1.76957 6.07759 -5.87711 0.0823691 1 
58 1 2.209 8.66086 -4.84621 0.134483 1 
59 1 0.396876 9.82017 -3.00977 0.2461 1 
60 1 0.0362078 12.1137 -4.60778 0.0574287 1 
61 1 3.43879 0.0913901 -7.34416 0.00411226 1 
62 1 1.6134 1.14492 -5.39832 0.0737774 1 
63 1 0.842909 0.924857 -8.19156 0.00660906 1 
64 1 1.29773 3.50092 -7.0501 0.00643626 1 
981 1 -40.2082 55.9841 -1.09337 7.30302 5 
70 1 24.121 0.651058 -2.87029 0.275488 1 
71 1 24.5789 3.25952 -1.79809 6.65729 5 
72 1 22.222 1.6154 -0.813146 10.5182 5 
73 1 22.0507 4.03792 -2.56512 3.1943 5 
74 1 22.5087 6.83995 -1.20301 10.4658 5 
76 1 19.7235 7.26353 -1.67434 10.0744 5 
77 1 20.7146 9.90124 -1.12026 9.84384 5 
79 1 17.8888 10.875 -1.69306 3.54616 5 
81 1 15.5502 14.5379 -1.18917 10.6808 5 
83 1 13.5841 17.5659 -1.0246 7.55173 5 
4408 1 -59.3208 60.8983 -0.793247 5.62319 5 
87 1 21.5245 1.49803 -3.61109 0.150954 1 
960 1 -24.3342 32.1738 -0.990307 7.34116 5 
89 1 19.6873 2.5038 -1.46966 8.4633 5 
90 1 18.959 2.32367 -4.43672 0.0758738 1 
91 1 19.4074 4.84525 -3.17675 2.67053 5 
92 1 17.1182 3.28755 -2.52326 4.28441 5 
4444 1 -66.72 65.8969 -2.05639 2.08401 5 
94 1 16.8228 5.73394 -4.08215 1.99489 5 
95 1 17.3327 8.30101 -2.90245 5.03563 5 
96 1 15.025 6.88873 -2.23217 5.83172 5 
97 1 15.5173 9.4808 -1.19144 10.2121 5 
98 1 14.6549 9.24306 -3.78951 0.211267 1 
99 1 15.2395 11.8723 -2.50114 0.438084 1 
100 1 12.9419 10.3599 -1.73289 11.7111 5 
102 1 12.557 12.5804 -3.3748 0.192096 1 
103 1 12.9445 15.1477 -2.16486 3.63329 5 
104 1 10.922 13.4238 -1.381 7.24619 5 
106 1 10.298 15.9397 -3.1357 0.495599 1 
107 1 10.8047 18.7 -2.07252 1.64926 5 
108 1 8.33931 16.8445 -1.16169 5.33798 5 
110 1 8.16498 19.3552 -2.85645 0.276839 1 
111 1 8.65273 21.8974 -1.75708 5.97168 5 
113 1 6.12721 22.7939 -2.58556 6.56124 5 
114 1 6.60733 25.4046 -1.33882 5.4287 5 
116 1 3.98261 26.3773 -2.30454 0.392233 1 
117 1 4.32637 28.9869 -1.17876 7.45586 5 
119 1 1.7641 29.7271 -2.05445 5.25358 5 
122 1 16.6426 0.786901 -3.71409 0.147412 1 
123 1 15.8681 0.616883 -6.44416 0.00386094 1 
124 1 16.3451 3.17773 -5.27051 0.0171497 1 
125 1 14.0434 1.67726 -4.49008 0.020786 1 
126 1 14.5516 4.26712 -3.31895 0.127819 1 
127 1 13.731 4.05014 -6.05894 0.011303 1 
128 1 14.1959 6.62924 -4.91939 0.0224814 1 
129 1 11.8805 5.13968 -4.14926 0.337191 1 
130 1 12.3909 7.72 -2.95831 0.385837 1 
131 1 11.5708 7.47828 -5.68944 0.0252305 1 
132 1 12.0271 10.0401 -4.49838 0.0816692 1 
133 1 9.71901 8.48483 -3.69105 0.445758 1 
134 1 10.137 11.0435 -2.52482 3.35771 5 
135 1 9.42951 10.826 -5.3402 0.0124343 1 
136 1 9.88943 13.3632 -4.16725 0.165101 1 
137 1 7.55622 11.8211 -3.40995 1.39713 5 
138 1 7.99851 14.2777 -2.29227 1.91502 5 
139 1 7.28127 14.2112 -5.08391 0.0628986 1 
140 1 7.7217 16.7771 -3.95596 0.103106 1 
141 1 5.40978 15.3388 -3.28675 0.2361 1 
142 1 5.86504 17.9418 -2.12909 0.218932 1 
143 1 5.11226 17.7008 -4.85528 0.0112948 1 
144 1 5.58528 20.2613 -3.67097 0.0810299 1 
145 1 3.22527 18.8218 -3.01605 0.596512 1 
146 1 3.75603 21.3803 -1.7638 0.938781 1 
147 1 2.9745 21.1351 -4.54977 0.066844 1 
148 1 3.42272 23.7143 -3.53959 0.512615 1 
149 1 1.20179 22.1917 -2.61955 0.808673 1 
150 1 1.72841 24.9358 -1.51875 4.651 5 
151 1 0.818892 24.5556 -4.20905 0.109179 1 
152 1 1.29695 27.1716 -3.13085 0.0634841 1 
153 1 13.263 1.47319 -7.24466 0.00168307 1 
3324 1 -74.2773 65.9701 -2.88396 2.76755 5 
155 1 11.4438 2.53878 -5.29906 0.0239924 1 
156 1 10.6553 2.31451 -8.05813 0.00125543 1 
157 1 11.1213 4.89134 -6.88724 0.0122722 1 
158 1 8.82798 3.36455 -6.11664 0.0238505 1 
159 1 9.30237 5.94819 -4.86566 0.246018 1 
160 1 8.52228 5.71521 -7.6828 0.0187253 1 
161 1 8.97445 8.27817 -6.5155 0.00791243 1 
162 1 6.68427 6.73706 -5.77154 0.028322 1 
163 1 7.13434 9.29742 -4.572 0.172287 1 
164 1 6.38336 9.10186 -7.38837 0.0152698 1 
165 1 6.84076 11.665 -6.24482 0.029319 1 
166 1 4.53469 10.1569 -5.55095 0.0307646 1 
167 1 4.96267 12.7421 -4.4482 0.222101 1 
168 1 4.22148 12.5264 -7.1656 0.0122656 1 
169 1 4.66441 15.1197 -6.01069 0.0144394 1 
170 1 2.34709 13.6242 -5.3621 0.0669763 1 
171 1 2.79766 16.2448 -4.15012 0.103162 1 
172 1 2.02711 15.9938 -6.86088 0.0196884 1 
173 1 2.4799 18.5743 -5.70506 0.0382313 1 
174 1 0.154266 17.1025 -4.90456 0.146708 1 
175 1 0.629887 19.6929 -3.67916 0.284433 1 
176 1 0.355613 21.9878 -5.35524 0.0192135 1 
177 1 8.3422 0.795966 -7.29442 0.00447166 1 
178 1 7.58147 0.570282 -10.0521 0.000501035 1 
179 1 8.04887 3.14519 -8.88012 0.0018874 1 
180 1 5.74406 1.61733 -8.11041 0.00364412 1 
181 1 6.20867 4.17949 -6.95414 0.00891051 1 
182 1 5.44386 3.96906 -9.721 0.000596994 1 
183 1 5.91602 6.53605 -8.55754 0.0033209 1 
184 1 3.60092 5.01345 -7.80918 0.00282749 1 
185 1 4.0689 7.57826 -6.68502 0.021508 1 
186 1 3.30004 7.37056 -9.42771 0.00260846 1 
187 1 3.76323 9.94526 -8.29251 0.00392963 1 
188 1 1.44738 8.42838 -7.55008 0.00979182 1 
189 1 1.90556 11.0171 -6.43703 0.0117563 1 
190 1 1.13506 10.794 -9.14851 0.00280648 1 
191 1 1.58761 13.3846 -8.03127 0.0130533 1 
192 1 4.97909 1.39845 -10.881 0.000449916 1 
7605 1 -64.1121 65.8878 -10.1072 0.000381004 1 
194 1 3.13954 2.44481 -8.96027 0.000729342 1 
195 1 2.37265 2.22941 -11.7218 0.000179334 1 
196 1 2.83476 4.80109 -10.5688 0.000354664 1 
197 1 0.530663 3.28087 -9.80787 0.0006887 1 
198 1 0.994102 5.85276 -8.65698 0.00571036 1 
199 1 0.221478 5.63911 -11.4112 0.000610747 1 
200 1 0.678888 8.21298 -10.2758 0.00168535 1 
201 1 0.0718006 0.706915 -10.9605 0.000781877 1 
202 1 39.324 0.295623 -1.09347 6.42931 5 
205 1 36.5744 1.32577 -1.82372 6.65302 5 
206 1 33.9354 2.06557 -2.42536 4.82565 5 
207 1 34.6841 4.52019 -1.49016 9.93592 5 
209 1 31.9621 5.36829 -2.43454 4.88027 5 
210 1 31.9814 8.05919 -1.25207 7.66258 5 
212 1 29.6609 9.0488 -2.14173 8.11141 5 
3267 1 -66.9196 55.9843 -1.09327 7.30254 5 
215 1 27.5659 12.4359 -1.93225 5.94528 5 
217 1 25.381 15.8944 -1.13706 6.86937 5 
219 1 23.2404 19.179 -0.986493 8.10385 5 
222 1 31.7413 0.410923 -1.70337 1.85046 5 
223 1 30.8864 0.305388 -4.5358 0.0767791 1 
224 1 31.3478 2.81265 -3.4549 0.445681 1 
225 1 29.0937 1.37108 -2.44807 6.01275 5 
226 1 29.3074 3.9237 -1.57446 6.05918 5 
227 1 28.7506 3.73132 -4.28546 0.176391 1 
228 1 29.2673 6.34879 -2.98886 2.56675 5 
229 1 26.8831 4.88164 -2.43174 1.24962 5 
230 1 27.3084 7.6941 -1.30178 9.22777 5 
231 1 26.6394 7.17216 -4.04541 0.170192 1 
232 1 27.1148 9.82721 -2.9882 0.244499 1 
233 1 24.8286 8.21418 -2.16625 1.94336 5 
234 1 25.3497 10.9303 -1.22187 11.1062 5 
235 1 24.442 10.6062 -3.75943 0.22968 1 
236 1 24.9745 13.233 -2.59862 0.438624 1 
237 1 22.6892 11.6754 -1.5493 6.61946 5 
239 1 22.2978 13.975 -3.31588 0.222262 1 
240 1 22.7651 16.6041 -2.07752 3.56501 5 
241 1 20.555 15.0476 -1.3181 3.14022 5 
243 1 20.1818 17.4007 -3.05219 0.291143 1 
244 1 20.6542 20.166 -1.84676 4.73005 5 
245 1 18.3441 18.5414 -1.35783 6.49467 5 
246 1 18.0087 20.9043 -2.65855 0.211483 1 
247 1 18.4672 23.4473 -1.47435 6.89285 5 
249 1 15.8077 24.1773 -2.16759 1.34861 5 
250 1 -37.1309 26.6819 -1.19456 2.8349 5 
252 1 13.6504 27.5989 -2.05829 0.659659 1 
255 1 -41.7906 30.998 -1.7922 6.60161 5 
257 1 -44.1619 34.7513 -1.29143 6.52897 5 
259 1 -45.9814 37.8023 -1.02455 7.86353 5 
262 1 28.3196 1.14544 -5.38808 0.0722685 1 
263 1 26.493 2.22543 -3.48774 1.0007 5 
264 1 25.7157 1.98062 -6.28202 0.0232677 1 
265 1 26.1464 4.57027 -5.15468 0.0245309 1 
266 1 23.8532 3.01879 -4.45519 0.104155 1 
267 1 24.2833 5.65045 -3.25956 0.195365 1 
268 1 23.523 5.40464 -5.97479 0.0312864 1 
269 1 24.0271 7.97139 -4.87315 0.064705 1 
270 1 21.6618 6.44103 -3.98138 0.385147 1 
271 1 22.2756 8.9738 -2.97833 1.13747 1 
272 1 21.3867 8.7892 -5.62821 0.05155 1 
273 1 21.8597 11.3956 -4.42622 0.105292 1 
274 1 19.5952 9.79022 -3.6689 0.461216 1 
275 1 20.08 12.4344 -2.44082 3.13165 5 
276 1 19.2676 12.2067 -5.23064 0.0518376 1 
277 1 19.7022 14.8093 -4.10283 0.0510041 1 
278 1 17.4119 13.3003 -3.39352 0.35977 1 
279 1 17.8735 15.9444 -2.2339 0.479425 1 
280 1 17.0927 15.6518 -4.96687 0.0280939 1 
281 1 17.5143 18.2537 -3.89763 0.240403 1 
282 1 15.2736 16.6998 -2.99709 0.316182 1 
283 1 15.7055 19.2712 -1.83541 5.24696 5 
284 1 14.9105 19.0702 -4.58748 0.0541498 1 
285 1 15.3489 21.6321 -3.42296 0.103525 1 
286 1 13.1076 20.094 -2.48228 6.02498 5 
287 1 13.4842 22.7017 -1.47261 7.76286 5 
288 1 12.795 22.4395 -4.28528 0.0598847 1 
289 1 13.2453 25.0099 -3.10242 0.192363 1 
290 1 10.9218 23.4851 -2.39869 7.04477 5 
291 1 11.2695 25.9953 -1.36338 7.04605 5 
292 1 10.653 25.8477 -4.08203 0.0677354 1 
293 1 11.1206 28.4224 -2.93347 0.104042 1 
294 1 8.76262 26.9243 -2.33602 0.764451 1 
295 1 9.26828 29.558 -1.11957 4.63451 5 
296 1 8.52612 29.3349 -3.79775 0.0384444 1 
297 1 -44.3823 31.9976 -2.50526 4.32 5 
298 1 6.70272 30.4595 -1.98296 0.318008 1 
300 1 6.4014 32.7774 -3.51571 0.129507 1 
301 1 -46.5985 35.3384 -2.30812 0.493787 1 
302 1 4.58198 33.81 -1.5188 5.40525 5 
304 1 -49.1529 36.1644 -3.19806 0.28098 1 
305 1 -48.6273 38.7749 -1.83611 0.93633 1 
306 1 -50.9445 37.2822 -1.41598 7.52494 5 
307 1 -51.295 39.6763 -2.61579 0.437361 1 
308 1 -50.7709 42.2404 -1.46771 6.27199 5 
310 1 -52.9834 45.552 -1.02193 9.65762 5 
311 1 23.3824 0.448461 -5.56417 0.0121227 1 
312 1 22.6304 0.239416 -8.29965 0.000955985 1 
313 1 23.0848 2.81807 -7.14663 0.00873309 1 
314 1 20.7839 1.28809 -6.38114 0.00437217 1 
315 1 21.2251 3.86304 -5.21203 0.0411758 1 
316 1 20.4749 3.65956 -7.95423 0.00185816 1 
317 1 20.9298 6.23099 -6.77428 0.0153132 1 
318 1 18.6454 4.7002 -5.99834 0.0173737 1 
319 1 19.1137 7.23504 -4.74844 0.270619 1 
320 1 18.3391 7.07462 -7.56444 0.0206571 1 
321 1 18.7927 9.64006 -6.41636 0.0152164 1 
322 1 16.5073 8.13063 -5.65613 0.0200531 1 
323 1 16.9775 10.6954 -4.46278 0.0783253 1 
324 1 16.1877 10.4937 -7.2406 0.00343904 1 
325 1 16.649 13.0621 -6.09967 0.0167064 1 
326 1 14.3587 11.5673 -5.30076 0.0372054 1 
327 1 14.8178 14.1405 -4.11845 0.105932 1 
328 1 14.037 13.9054 -6.89896 0.00672715 1 
329 1 14.4838 16.4805 -5.74675 0.0108572 1 
330 1 12.1971 14.9333 -4.96211 0.0259062 1 
331 1 12.6394 17.5076 -3.81471 0.188674 1 
332 1 11.8861 17.295 -6.59729 0.0101562 1 
333 1 12.3473 19.8716 -5.40051 0.0851744 1 
334 1 10.0217 18.3266 -4.73857 0.0644688 1 
335 1 10.5078 20.9479 -3.57471 0.183294 1 
336 1 9.74735 20.703 -6.32712 0.00750964 1 
337 1 10.2013 23.2846 -5.17655 0.009614 1 
338 1 7.90371 21.7434 -4.47011 0.0388651 1 
339 1 8.36531 24.3262 -3.26184 0.236939 1 
340 1 7.60248 24.128 -6.04554 0.0140294 1 
341 1 8.0511 26.7087 -4.98191 0.0865533 1 
342 1 5.75641 25.1804 -4.15011 0.161688 1 
343 1 6.17103 27.8061 -3.19939 0.484984 1 
344 1 5.44111 27.5677 -5.82879 0.0466929 1 
345 1 5.93152 30.1823 -4.68672 0.0326737 1 
346 1 3.60154 28.662 -3.94253 0.0533774 1 
347 1 4.12956 31.2253 -2.81647 0.165329 1 
348 1 3.31334 31.0124 -5.50396 0.0227533 1 
349 1 3.79633 33.6004 -4.30044 0.0537276 1 
350 1 1.51135 32.0496 -3.63965 0.240232 1 
351 1 2.04426 34.6741 -2.29715 0.909388 5 
352 1 1.14002 34.4495 -5.01382 0.16859 1 
353 1 -51.8223 37.052 -3.95009 0.379443 1 
354 1 20.0176 1.08365 -9.12356 0.000496712 1 
355 1 18.1782 2.13461 -7.19188 0.00200487 1 
356 1 17.4072 1.93038 -9.93929 0.000455818 1 
357 1 17.8701 4.50649 -8.76133 0.00184637 1 
358 1 15.5658 2.98845 -8.00805 0.00201332 1 
359 1 16.0376 5.5585 -6.82526 0.00532637 1 
360 1 15.2619 5.34946 -9.58304 0.000470723 1 
361 1 15.7262 7.92062 -8.41113 0.00120175 1 
362 1 13.4195 6.40768 -7.64887 0.00252953 1 
363 1 13.8769 8.98721 -6.48705 0.0148298 1 
364 1 13.1148 8.76108 -9.23942 0.000803327 1 
365 1 13.5756 11.3353 -8.06746 0.0023588 1 
366 1 11.2734 9.81078 -7.29021 0.00460934 1 
367 1 11.7323 12.3714 -6.12289 0.0100427 1 
368 1 10.9722 12.1585 -8.90554 0.000936734 1 
369 1 11.4324 14.7229 -7.74712 0.00287056 1 
370 1 9.13378 13.1869 -6.97621 0.00947329 1 
371 1 9.57897 15.7425 -5.85409 0.0135557 1 
372 1 8.82594 15.5546 -8.61427 0.00223031 1 
373 1 9.28083 18.1251 -7.47465 0.00334257 1 
374 1 6.97679 16.6038 -6.72043 0.00960404 1 
375 1 7.4268 19.1741 -5.59073 0.00970058 1 
376 1 6.67108 18.9785 -8.33307 0.00162834 1 
377 1 7.13751 21.5517 -7.19737 0.00281809 1 
378 1 4.82077 20.0523 -6.43895 0.00481069 1 
379 1 5.30196 22.6111 -5.31381 0.0297374 1 
380 1 4.52023 22.4102 -8.04398 0.00211608 1 
381 1 4.98639 24.983 -6.90633 0.00953886 1 
382 1 2.65928 23.4868 -6.17109 0.0330844 1 
383 1 3.13038 26.0787 -5.03139 0.0434742 1 
384 1 2.35384 25.8473 -7.7368 0.00524813 1 
385 1 2.82075 28.4252 -6.62805 0.0115398 1 
386 1 0.489466 26.9158 -5.80498 0.0209825 1 
387 1 0.98306 29.4848 -4.73167 0.0476816 1 
388 1 0.191617 29.2757 -7.39672 0.0102464 1 
389 1 0.668498 31.8595 -6.27049 0.0434156 1 
390 1 15.1014 0.411094 -9.1824 0.000631206 1 
391 1 14.3365 0.194846 -11.927 0.000161532 1 
392 1 14.7984 2.77361 -10.7579 0.000266077 1 
393 1 12.4936 1.25499 -9.99552 0.000284624 1 
394 1 12.9594 3.83181 -8.82114 0.000359476 1 
395 1 12.1912 3.61189 -11.5786 0.000169298 1 
396 1 12.6538 6.18712 -10.4079 0.000235978 1 
397 1 10.351 4.66777 -9.6437 0.00122625 1 
398 1 10.814 7.24166 -8.46582 0.0023381 1 
399 1 10.0497 7.01938 -11.2376 0.00038665 1 
400 1 10.5122 9.59022 -10.0699 0.000768376 1 
401 1 8.21462 8.06335 -9.30572 0.00168531 1 
402 1 8.67708 10.6291 -8.14209 0.00339392 1 
403 1 7.90919 10.4195 -10.9194 0.000948016 1 
404 1 8.36989 12.9887 -9.76114 0.00202338 1 
405 1 6.07209 11.4645 -9.01947 0.00458596 1 
406 1 6.52749 14.0378 -7.86701 0.00818504 1 
407 1 5.757 13.8323 -10.6248 0.0014382 1 
408 1 6.21315 16.4065 -9.4757 0.0016547 1 
409 1 3.90178 14.9003 -8.74098 0.00329367 1 
410 1 4.35554 17.4811 -7.59031 0.00287117 1 
411 1 3.59356 17.262 -10.3274 0.000800573 1 
412 1 4.05432 19.8383 -9.18045 0.000849683 1 
413 1 1.73322 18.3396 -8.42919 0.00432503 1 
414 1 2.19874 20.9119 -7.28081 0.00622063 1 
415 1 1.43328 20.691 -10.01 0.000986957 1 
416 1 1.89424 23.2668 -8.87162 0.00277942 1 
417 1 0.0425863 24.3375 -6.9452 0.000992593 1 
418 1 11.7288 1.03412 -12.7474 0.000112293 1 
419 1 9.88726 2.09169 -10.8157 0.000247248 1 
420 1 9.12268 1.86941 -13.5729 9.01566e-05 1 
421 1 9.58566 4.44578 -12.4063 0.000188522 1 
422 1 7.28275 2.923 -11.6446 0.000319416 1 
423 1 7.75022 5.49562 -10.4719 0.00220756 1 
424 1 6.98066 5.27712 -13.2407 0.000345451 1 
425 1 7.44535 7.84899 -12.079 0.000501062 1 
426 1 5.14251 6.32427 -11.3249 0.000652495 1 
427 1 5.60913 8.89439 -10.168 0.0023539 1 
428 1 4.83512 8.68311 -12.9283 0.000490703 1 
429 1 5.29798 11.2566 -11.7771 0.00101237 1 
430 1 2.99011 9.73419 -11.0317 0.001229 1 
431 1 3.45054 12.3135 -9.89304 0.00284695 1 
432 1 2.67885 12.1002 -12.6269 0.000668284 1 
433 1 3.13664 14.6816 -11.4773 0.000763291 1 
434 1 0.823582 13.1631 -10.7349 0.00230611 1 
435 1 1.27691 15.7546 -9.58387 0.00256975 1 
436 1 0.516095 15.5292 -12.3113 0.000554277 1 
437 1 0.973289 18.1125 -11.1594 0.000736871 1 
438 1 6.81899 0.3468 -12.8098 0.000123547 1 
440 1 6.51655 2.70253 -14.4041 8.69679e-05 1 
441 1 4.21347 1.17883 -13.6418 0.000102144 1 
442 1 4.6763 3.75289 -12.4829 0.000172723 1 
444 1 4.37124 6.11007 -14.0829 0.000179863 1 
445 1 2.0658 4.58715 -13.3233 0.000144235 1 
446 1 2.52802 7.15983 -12.1747 0.000551793 1 
447 1 1.75796 6.94732 -14.9222 0.000146684 1 
448 1 2.21879 9.52254 -13.7732 0.00034725 1 
449 1 0.367733 10.5792 -11.8715 0.000893765 1 
450 1 0.0592037 12.9454 -13.4601 0.000511504 1 
452 1 1.60487 2.01307 -14.4778 6.87362e-05 1 
456 1 49.017 1.79266 -0.983493 9.61957 5 
475 1 -20.3655 20.5745 -0.779285 5.98391 5 
461 1 46.418 2.50882 -1.54449 6.65687 5 
462 1 44.3649 0.671121 -0.900545 7.14739 5 
463 1 43.8281 3.26959 -2.509 4.36504 5 
916 1 -19.6203 32.9242 -0.757963 7.57715 5 
466 1 41.7354 6.88111 -2.22271 5.86549 5 
467 1 -11.1918 9.48098 -1.19375 10.2946 5 
469 1 -13.769 10.3606 -1.73206 11.6467 5 
471 1 -15.796 13.4285 -1.38598 7.23756 5 
473 1 -18.3838 16.8428 -1.15596 5.36975 5 
478 1 43.3797 0.777774 -3.68656 0.149522 1 
479 1 41.6634 1.84162 -1.68521 1.88696 5 
480 1 40.7712 1.67475 -4.47155 0.0289578 1 
481 1 41.2774 4.24009 -3.29874 0.172261 1 
482 1 39.0177 2.72471 -2.48841 0.512337 5 
483 1 39.4394 5.378 -1.54729 7.24258 5 
484 1 38.6028 5.12449 -4.1295 0.331206 1 
485 1 39.1051 7.70084 -2.9368 0.359052 1 
486 1 36.7037 6.3446 -1.75101 8.69078 5 
487 1 37.5673 8.84626 -1.00092 10.5815 5 
488 1 36.435 8.47879 -3.68071 0.428797 1 
489 1 36.8486 11.0451 -2.52531 3.35599 5 
490 1 34.6969 9.27799 -1.54541 9.07304 5 
492 1 34.2638 11.8261 -3.40815 1.39802 5 
493 1 -18.7235 14.2812 -2.2887 1.89528 5 
494 1 32.0063 12.9928 -1.72353 5.75725 5 
496 1 -21.3194 15.3458 -3.27008 0.23796 1 
497 1 -20.8544 17.9445 -2.11953 0.229729 1 
498 1 -23.1456 16.4381 -1.33217 6.28656 5 
500 1 -23.4968 18.8259 -2.99294 0.597811 1 
501 1 -22.9439 21.3923 -1.75579 0.998741 1 
503 1 -25.5026 22.1981 -2.6133 0.820101 1 
504 1 -24.9809 24.9476 -1.52368 4.67248 5 
506 1 -27.6831 25.721 -2.37442 5.49127 5 
507 1 -27.2872 28.2887 -1.13934 10.2793 5 
509 1 -29.9158 29.2384 -1.41924 10.0409 5 
511 1 -31.6575 32.1483 -1.02167 9.64355 5 
513 1 -33.9592 35.9831 -1.39513 7.17297 5 
1538 1 -86.0323 60.8982 -0.793302 5.6235 5 
518 1 38.4349 0.198942 -3.75519 0.0761853 1 
1791 1 -47.5658 65.9701 -2.88393 2.76724 5 
520 1 38.1637 2.53469 -5.28549 0.0293926 1 
521 1 35.811 1.05007 -4.5265 0.0736264 1 
522 1 36.4072 3.61559 -3.32754 0.502997 1 
523 1 35.5457 3.3636 -6.1053 0.0242915 1 
524 1 36.0216 5.94009 -4.84962 0.248999 1 
525 1 33.7415 4.34882 -4.20265 0.196599 1 
526 1 34.1551 6.93728 -2.95221 1.93852 5 
527 1 33.3982 6.73594 -5.75962 0.0295188 1 
528 1 33.8474 9.29798 -4.56286 0.16248 1 
529 1 31.511 7.79884 -3.95896 0.3417 1 
530 1 32.044 10.3988 -2.72346 5.95048 5 
531 1 31.2404 10.1649 -5.53046 0.0330106 1 
532 1 31.6589 12.7571 -4.43203 0.250434 1 
533 1 29.4271 11.3093 -3.69704 5.75901 5 
534 1 29.7206 13.9513 -2.63354 5.84888 5 
535 1 29.0252 13.6523 -5.29281 0.0475222 1 
536 1 29.4895 16.2547 -4.11725 0.0617715 1 
537 1 27.1345 14.8191 -3.40579 0.40405 1 
538 1 27.713 17.403 -2.11603 0.443212 1 
539 1 26.8773 17.1116 -4.89642 0.0421148 1 
540 1 -26.0901 19.6826 -3.63456 0.365234 1 
541 1 25.0423 18.145 -2.9256 0.192772 1 
542 1 -27.9247 20.8676 -1.64849 7.07978 5 
543 1 -28.6563 20.4729 -4.51604 0.0840944 1 
544 1 -28.1974 23.0552 -3.44336 0.279594 1 
545 1 -30.4952 21.545 -2.6904 5.16063 5 
546 1 -29.9775 24.0758 -1.39896 10.0112 5 
547 1 -30.8191 23.9174 -4.16434 0.123595 1 
548 1 -30.2795 26.4669 -2.97054 1.97907 5 
549 1 -32.5838 24.8553 -2.01239 6.69934 5 
550 1 -32.1187 27.4423 -1.30662 12.7427 5 
551 1 -32.9821 27.253 -3.84443 0.30215 1 
552 1 -32.4651 29.8653 -2.57161 1.48667 5 
553 1 -34.8029 28.3557 -1.77325 4.27133 5 
555 1 -35.075 30.6616 -3.48263 0.187861 1 
556 1 -34.5493 33.3088 -2.12764 1.73576 5 
557 1 -36.9476 31.6606 -1.68408 8.99387 5 
559 1 -37.1053 34.091 -3.05564 0.946185 5 
560 1 -36.5892 36.7687 -1.95135 7.83677 5 
561 1 -38.615 35.2309 -1.04252 10.4687 5 
563 1 -39.2354 37.4249 -2.85059 5.10335 5 
564 1 -38.8204 39.8496 -1.68147 8.60419 5 
3720 1 -90.8237 65.8878 -10.1072 0.000380985 1 
566 1 -41.3293 40.8203 -2.89281 7.69607 5 
567 1 -41.1046 44.3807 -1.05087 6.36863 5 
569 1 -43.6701 44.5012 -2.39183 2.74823 5 
572 1 -45.7059 47.9002 -1.93778 0.42053 1 
574 1 -47.9178 51.1845 -1.56193 2.72361 5 
576 1 -50.2062 54.4479 -1.21384 2.04724 5 
578 1 -52.3915 57.9784 -1.21218 7.37413 5 
579 1 35.055 0.799558 -7.29186 0.00448391 1 
580 1 33.2253 1.82592 -5.31485 0.0579937 1 
581 1 32.4556 1.62138 -8.10532 0.00401363 1 
582 1 32.9224 4.18041 -6.9457 0.00957902 1 
583 1 30.6102 2.65259 -6.18897 0.0129895 1 
584 1 31.0575 5.21372 -5.04347 0.110518 1 
585 1 30.3115 5.01687 -7.7985 0.00276186 1 
586 1 30.7795 7.58243 -6.671 0.0217693 1 
587 1 28.479 6.07971 -5.86407 0.0765022 1 
588 1 28.9202 8.66804 -4.82927 0.136702 1 
589 1 28.1593 8.43601 -7.52975 0.0104321 1 
590 1 28.614 11.0339 -6.39813 0.0114889 1 
591 1 26.3002 9.52183 -5.65459 0.0179395 1 
592 1 26.7449 12.1372 -4.55134 0.0648063 1 
593 1 25.9815 11.8836 -7.22712 0.00890493 1 
594 1 26.4154 14.4987 -6.08517 0.0336739 1 
595 1 24.1252 12.963 -5.28902 0.031598 1 
596 1 24.5723 15.5764 -4.06723 0.122259 1 
597 1 23.8235 15.3129 -6.84664 0.00857069 1 
598 1 24.2834 17.8976 -5.69619 0.010422 1 
599 1 22.0022 16.3479 -4.8981 0.0256864 1 
600 1 22.4517 18.9422 -3.78077 0.0642143 1 
601 1 21.6798 18.7173 -6.51049 0.00313169 1 
602 1 22.1422 21.3065 -5.36578 0.0164189 1 
603 1 19.8348 19.7853 -4.56667 0.0599097 1 
604 1 20.302 22.4172 -3.42327 2.85846 5 
605 1 19.5336 22.1414 -6.14916 0.00898138 1 
606 1 -33.4128 24.7204 -4.96 0.0748156 1 
607 1 17.6554 23.1982 -4.22084 0.0670415 1 
608 1 -35.2475 25.7355 -3.051 0.133874 1 
609 1 -36.0215 25.533 -5.81117 0.00773495 1 
610 1 -35.5633 28.1057 -4.59881 0.0414227 1 
611 1 15.5494 26.5369 -3.90687 0.10559 1 
612 1 -37.423 29.0946 -2.60897 0.691825 1 
613 1 -38.136 28.9315 -5.45158 0.0357863 1 
614 1 -37.6993 31.5225 -4.31511 0.240305 1 
615 1 -39.9529 30.0166 -3.54889 0.207093 1 
616 1 -39.5654 32.7537 -2.10371 5.27064 5 
617 1 -40.258 32.3484 -5.09561 0.175932 1 
618 1 -39.7031 34.8693 -3.99597 0.489576 5 
619 1 -42.1299 33.4149 -3.22173 1.1149 5 
620 1 -41.2874 35.7025 -1.99365 6.14977 5 
621 1 -42.3582 35.7449 -4.83095 0.190525 1 
622 1 -41.8991 38.2469 -3.53867 5.09869 5 
623 1 -44.2091 36.8715 -3.01728 1.18397 5 
624 1 -43.9064 39.6254 -1.74429 9.36264 5 
625 1 -44.4973 39.1965 -4.58164 0.229551 1 
626 1 -44.1099 41.8161 -3.53631 1.39845 5 
627 1 -46.3483 40.213 -2.71709 6.83107 5 
628 1 -45.6254 42.6431 -1.14757 10.4639 5 
629 1 -46.7026 42.6281 -4.19337 0.447565 1 
630 1 -46.2745 45.238 -3.2318 0.940325 1 
631 1 -48.4196 43.7539 -2.30541 0.631037 1 
632 1 -48.1131 46.3948 -1.15058 7.12683 5 
633 1 -48.8785 46.0521 -3.93928 0.0656898 1 
634 1 -48.3468 48.5968 -2.82342 0.23825 1 
635 1 -50.7259 47.071 -2.00731 5.10263 5 
636 1 -50.0412 49.4714 -0.931695 7.5002 5 
637 1 -51.0517 49.4214 -3.57804 0.172059 1 
638 1 -50.5764 51.9294 -2.25521 5.4753 5 
639 1 -52.8842 50.4108 -1.62476 2.13625 5 
641 1 -53.1909 52.8006 -3.27011 0.202996 1 
642 1 -52.7211 55.4193 -2.0974 0.589601 1 
643 1 30.1485 0.0964931 -7.3404 0.00363737 1 
505 1 -27.1344 23.4931 -0.913496 10.1849 5 
645 1 29.8496 2.44961 -8.95268 0.000731167 1 
646 1 27.5514 0.93049 -8.18293 0.00635748 1 
647 1 28.0068 3.50296 -7.03864 0.00617198 1 
648 1 27.241 3.28621 -9.79705 0.000559002 1 
649 1 27.7047 5.85783 -8.64248 0.0049507 1 
650 1 25.3905 4.34085 -7.89084 0.00279533 1 
651 1 25.8552 6.91726 -6.76413 0.0147691 1 
652 1 25.0839 6.70114 -9.49146 0.00174014 1 
653 1 25.5348 9.28554 -8.35698 0.00301373 1 
654 1 23.231 7.75924 -7.57528 0.00616034 1 
655 1 23.6764 10.3514 -6.437 0.0189059 1 
656 1 22.9195 10.1276 -9.1592 0.00253447 1 
657 1 23.3692 12.7175 -8.0113 0.00394373 1 
658 1 21.0809 11.1778 -7.19884 0.00856602 1 
659 1 21.5279 13.7633 -6.05729 0.00874592 1 
660 1 20.7706 13.5422 -8.80966 0.00107447 1 
661 1 21.2288 16.1265 -7.65891 0.00196521 1 
662 1 18.9374 14.5856 -6.8693 0.00631195 1 
663 1 19.3918 17.1758 -5.75193 0.0217101 1 
664 1 18.623 16.9579 -8.48032 0.00187757 1 
665 1 19.0764 19.552 -7.31931 0.00253776 1 
666 1 16.7672 18.0188 -6.56458 0.0186434 1 
667 1 17.2208 20.6181 -5.39069 0.0239991 1 
668 1 16.4753 20.3772 -8.14488 0.00140048 1 
669 1 16.9339 22.9595 -6.98084 0.00383731 1 
670 1 14.6309 21.4168 -6.20685 0.00660354 1 
671 1 15.0901 23.9863 -5.02082 0.0255916 1 
672 1 14.3462 23.7777 -7.81234 0.00288364 1 
673 1 14.8104 26.3533 -6.65866 0.00921617 1 
674 1 12.5149 24.8096 -5.90242 0.015692 1 
675 1 12.972 27.4005 -4.77329 0.0344093 1 
676 1 12.2191 27.188 -7.52267 0.00440712 1 
677 1 -40.7296 29.7733 -6.33849 0.0101671 1 
678 1 10.3738 28.2456 -5.65543 0.00540031 1 
679 1 -42.5778 30.833 -4.46353 0.0446158 1 
680 1 -43.334 30.625 -7.21473 0.00268024 1 
681 1 -42.8503 33.2001 -6.02194 0.0125954 1 
682 1 8.26347 31.7009 -5.31626 0.0394796 1 
683 1 -44.6958 34.2946 -4.14505 0.136024 1 
684 1 -45.4661 34.0485 -6.90286 0.00584132 1 
685 1 -45.0001 36.6278 -5.74503 0.0150273 1 
686 1 -47.3114 35.1234 -5.04417 0.0239674 1 
687 1 -46.8384 37.69 -3.83798 0.0644633 1 
688 1 -47.6392 37.4829 -6.5695 0.0102381 1 
689 1 -47.1528 40.0437 -5.41642 0.0186927 1 
690 1 -49.4825 38.5527 -4.61088 0.112002 1 
691 1 -49.0223 41.1297 -3.55418 0.36066 1 
692 1 -49.7906 40.8985 -6.2252 0.0158564 1 
693 1 -49.3296 43.488 -5.0591 0.0447015 1 
694 1 -51.615 41.9684 -4.25154 0.024084 1 
695 1 -51.1473 44.519 -3.09903 0.0875032 1 
696 1 -51.9606 44.3108 -5.83811 0.00774392 1 
697 1 -51.5022 46.8659 -4.70685 0.019281 1 
698 1 -53.3253 47.8952 -2.66928 1.19156 5 
699 1 26.7817 0.713835 -10.9536 0.000713678 1 
700 1 24.9393 1.76525 -9.04264 0.00167576 1 
701 1 24.1695 1.55088 -11.795 0.000215284 1 
702 1 24.6271 4.12587 -10.638 0.000405696 1 
703 1 22.3221 2.60579 -9.88125 0.000743157 1 
704 1 22.7766 5.18348 -8.72021 0.00225627 1 
705 1 22.0129 4.9691 -11.4647 0.000351941 1 
706 1 22.4681 7.54575 -10.3091 0.000721616 1 
707 1 20.1673 6.02593 -9.53031 0.00194622 1 
708 1 20.6234 8.59928 -8.36846 0.00198306 1 
709 1 19.8605 8.3868 -11.1214 0.000260375 1 
710 1 20.3166 10.9633 -9.96084 0.000833364 1 
711 1 18.0218 9.4378 -9.18003 0.00099272 1 
712 1 18.4846 12.01 -8.01516 0.00371838 1 
713 1 17.7139 11.7993 -10.7798 0.000385336 1 
714 1 18.1698 14.3753 -9.62639 0.000547211 1 
715 1 15.8742 12.8511 -8.84814 0.00098083 1 
716 1 16.3264 15.4282 -7.69923 0.00280551 1 
717 1 15.566 15.2112 -10.4538 0.000206416 1 
718 1 16.0193 17.7917 -9.30268 0.00111262 1 
719 1 13.726 16.2586 -8.51964 0.00156874 1 
720 1 14.1746 18.839 -7.36479 0.00411978 1 
721 1 13.4218 18.6207 -10.1317 0.000581318 1 
722 1 13.8819 21.1993 -8.9766 0.00111875 1 
723 1 11.5881 19.662 -8.20447 0.00821245 1 
724 1 12.0454 22.2367 -7.06331 0.00544028 1 
725 1 11.2849 22.028 -9.82787 0.00125256 1 
726 1 11.7534 24.6058 -8.67577 0.00265825 1 
727 1 9.44491 23.0752 -7.93542 0.00105442 1 
728 1 9.91324 25.6514 -6.80746 0.0110701 1 
729 1 9.1458 25.4473 -9.54235 0.00205234 1 
730 1 9.61466 28.0349 -8.39013 0.00188839 1 
731 1 7.29987 26.5019 -7.67452 0.0106609 1 
732 1 7.77216 29.1025 -6.52459 0.00732395 1 
733 1 6.99917 28.8819 -9.24505 0.00204666 1 
734 1 7.47709 31.471 -8.07458 0.00379148 1 
735 1 5.15139 29.9485 -7.37731 0.00691133 1 
736 1 5.62949 32.5433 -6.21543 0.0182556 1 
737 1 4.84362 32.3204 -8.91798 0.0034334 1 
738 1 -48.1041 34.9026 -7.75273 0.00442718 1 
739 1 2.987 33.3904 -7.0031 0.0150377 1 
740 1 -49.9622 35.9639 -5.84979 0.0309962 1 
741 1 2.69012 35.7477 -8.55687 0.00265941 1 
742 1 -50.2604 38.328 -7.37352 0.00631537 1 
743 1 0.843451 36.8082 -6.62151 0.020474 1 
744 1 -52.0885 39.4037 -5.42112 0.0277928 1 
745 1 -52.8767 39.1678 -8.17028 0.00238197 1 
746 1 -52.4137 41.7446 -6.99882 0.00282639 1 
747 1 21.8645 0.0286142 -11.0414 0.000170721 1 
748 1 21.5559 2.39219 -12.6257 0.000136588 1 
749 1 19.2516 0.871993 -11.8665 0.00014934 1 
750 1 19.71 3.44994 -10.7002 0.000383907 1 
751 1 18.9448 3.23441 -13.449 0.000110907 1 
752 1 19.4032 5.81138 -12.2838 0.000319791 1 
753 1 17.1019 4.29281 -11.5178 0.000298287 1 
754 1 17.5641 6.86701 -10.3425 0.00175978 1 
755 1 16.7967 6.6508 -13.105 0.000226656 1 
756 1 17.2555 9.2251 -11.9412 0.000158058 1 
757 1 14.9564 7.70572 -11.1726 0.000129385 1 
758 1 15.416 10.2789 -10.0055 0.000413854 1 
759 1 14.6505 10.0621 -12.7692 0.000109891 1 
760 1 15.1093 12.6358 -11.6091 9.8643e-05 1 
761 1 12.8111 11.114 -10.8375 0.000293955 1 
762 1 13.2706 13.6855 -9.67507 0.000907798 1 
763 1 12.5058 13.47 -12.443 0.000223422 1 
764 1 12.9647 16.0438 -11.2867 0.000365565 1 
765 1 10.6676 14.5153 -10.521 0.000656872 1 
766 1 11.1263 17.087 -9.3682 0.00146012 1 
767 1 10.3607 16.8777 -12.1313 0.000363105 1 
768 1 10.8225 19.4523 -10.9766 0.00104582 1 
769 1 8.51877 17.9242 -10.2267 0.000722212 1 
770 1 8.9822 20.4979 -9.07998 0.00121191 1 
771 1 8.21359 20.2919 -11.8301 0.000422824 1 
772 1 8.67776 22.8684 -10.6838 0.000516601 1 
773 1 6.36859 21.347 -9.93465 0.000697132 1 
774 1 6.83386 23.9228 -8.79324 0.00131301 1 
775 1 6.06268 23.7152 -11.5293 0.000460694 1 