ITEM: TIMESTEP
0
ITEM: NUMBER OF ATOMS
3936
ITEM: BOX BOUNDS xy xz yz pp pp ss
0.0000000000000000e+00 4.9852053846000004e+01 4.9852053800000001e-01
0.0000000000000000e+00 4.4730934232000003e+01 0.0000000000000000e+00
-1.3357525627774552e+02 1.4161129127910169e+02 0.0000000000000000e+00
ITEM: ATOMS id type x y z c_csym c_cna 
1 1 23.6712 0.297966 -0.839016 8.93571 5 
2 1 17.131 0.172454 -2.23159 6.22544 5 
3 1 14.634 1.02802 -1.28766 11.2697 5 
4 1 11.7405 1.76304 -1.70602 8.60232 5 
5 1 8.17511 0.742737 -3.36653 2.01066 5 
6 1 8.94648 2.6065 -1.04556 8.09628 5 
7 1 7.21998 0.297966 -0.839016 8.93571 5 
8 1 6.19098 3.17828 -1.04882 10.5136 5 
9 1 5.33903 1.45476 -2.95717 1.57123 5 
10 1 2.72037 2.25772 -2.43323 3.38633 5 
11 1 49.0578 4.43779 -0.429827 5.75271 5 
12 1 1.90099 0.410351 -4.75625 0.160585 1 
13 1 0.679829 0.172454 -2.23159 6.22544 5 
14 1 47.5363 1.02802 -1.28766 11.2697 5 
15 1 44.6429 1.76304 -1.70602 8.60232 5 
16 1 41.0775 0.742737 -3.36653 2.01066 5 
17 1 41.8488 2.6065 -1.04556 8.09628 5 
18 1 40.1223 0.297966 -0.839016 8.93571 5 
19 1 39.0933 3.17828 -1.04882 10.5136 5 
20 1 38.2414 1.45476 -2.95717 1.57123 5 
21 1 35.6227 2.25772 -2.43323 3.38633 5 
22 1 32.6066 4.43779 -0.429827 5.75271 5 
23 1 34.8033 0.410351 -4.75625 0.160585 1 
24 1 33.5822 0.172454 -2.23159 6.22544 5 
25 1 32.0579 1.10446 -4.49276 0.632003 1 
26 1 32.8147 2.85835 -2.56173 7.30189 5 
27 1 31.0852 1.02802 -1.28766 11.2697 5 
28 1 30.1552 3.75682 -1.82606 8.58387 5 
29 1 29.4104 1.89834 -4.10772 0.550491 1 
30 1 28.1917 1.76304 -1.70602 8.60232 5 
31 1 26.5734 2.66163 -3.86123 0.177223 1 
32 1 27.3758 4.48212 -1.92929 6.12484 5 
33 1 25.3977 2.6065 -1.04556 8.09628 5 
34 1 24.5473 5.25217 -1.46399 8.01998 5 
35 1 25.8297 0.843266 -5.94659 0.0271173 1 
36 1 24.6263 0.742737 -3.36653 2.01066 5 
37 1 23.0696 1.59126 -5.57012 0.0813612 1 
38 1 23.8592 3.43592 -3.53527 0.130641 1 
39 1 21.7902 1.45476 -2.95717 1.57123 5 
40 1 22.6422 3.17828 -1.04882 10.5136 5 
41 1 21.0578 4.17142 -3.2469 1.60322 5 
42 1 21.8077 5.91992 -1.26889 10.4895 5 
43 1 19.5833 0.541359 -7.37804 0.0136924 1 
44 1 20.3336 2.35859 -5.27513 0.117695 1 
45 1 18.3522 0.410351 -4.75625 0.160585 1 
46 1 19.1715 2.25772 -2.43323 3.38633 5 
47 1 17.6591 3.14674 -4.93193 0.246019 1 
48 1 18.363 4.98995 -2.68967 5.50847 5 
49 1 16.3635 2.85835 -2.56173 7.30189 5 
50 1 16.1555 4.43779 -0.429827 5.75271 5 
51 1 15.6241 5.64816 -2.82232 6.86234 5 
52 1 14.8948 7.03237 -0.68431 8.25464 5 
53 1 16.8562 1.30679 -7.0401 0.018164 1 
54 1 15.6067 1.10446 -4.49276 0.632003 1 
55 1 14.1112 2.05059 -6.76887 0.0413307 1 
56 1 14.8493 3.85221 -4.727 0.320956 1 
57 1 12.9593 1.89834 -4.10772 0.550491 1 
58 1 13.704 3.75682 -1.82606 8.58387 5 
59 1 12.1647 4.6296 -4.36683 0.16993 1 
60 1 12.8475 6.46173 -2.33273 7.874 5 
61 1 10.9247 4.48212 -1.92929 6.12484 5 
62 1 10.1103 7.23682 -2.05192 5.58758 5 
63 1 13.3567 0.230166 -8.81748 0.00305166 1 
64 1 10.6215 1.00045 -8.49856 0.00317402 1 
65 1 11.3875 2.81354 -6.40902 0.0324562 1 
66 1 9.37854 0.843266 -5.94659 0.0271173 1 
67 1 10.1222 2.66163 -3.86123 0.177223 1 
68 1 8.62294 3.58408 -6.12449 0.0142561 1 
69 1 9.36633 5.40756 -4.10031 0.0705621 1 
70 1 7.40807 3.43592 -3.53527 0.130641 1 
71 1 8.09615 5.25217 -1.46399 8.01998 5 
72 1 6.65423 6.19118 -3.74914 0.108224 1 
73 1 7.377 7.95762 -1.54922 5.63284 5 
74 1 5.35656 5.91992 -1.26889 10.4895 5 
75 1 4.61637 8.59516 -1.4752 8.47537 5 
76 1 7.87081 1.76652 -8.1759 0.00455896 1 
77 1 6.61846 1.59126 -5.57012 0.0813612 1 
78 1 5.13599 2.53033 -7.85047 0.00417701 1 
79 1 5.88463 4.35057 -5.78203 0.0114775 1 
80 1 3.88246 2.35859 -5.27513 0.117695 1 
81 1 4.60663 4.17142 -3.2469 1.60322 5 
82 1 3.1383 5.10975 -5.48582 0.0894991 1 
83 1 3.86434 6.89012 -3.4563 6.51196 5 
84 1 1.91178 4.98995 -2.68967 5.50847 5 
85 1 1.1407 7.75388 -2.96498 5.38688 5 
86 1 4.38856 0.704471 -9.93769 0.000921315 1 
87 1 3.13217 0.541359 -7.37804 0.0136924 1 
88 1 1.64672 1.46806 -9.62326 0.00078865 1 
89 1 2.39815 3.29367 -7.55186 0.00978258 1 
90 1 1.20789 3.14674 -4.93193 0.246019 1 
91 1 49.2659 2.85835 -2.56173 7.30189 5 
92 1 48.5264 5.64816 -2.82232 6.86234 5 
93 1 47.7971 7.03237 -0.68431 8.25464 5 
94 1 0.405044 1.30679 -7.0401 0.018164 1 
95 1 48.5091 1.10446 -4.49276 0.632003 1 
96 1 47.0136 2.05059 -6.76887 0.0413307 1 
97 1 47.7516 3.85221 -4.727 0.320956 1 
98 1 45.8616 1.89834 -4.10772 0.550491 1 
99 1 46.6064 3.75682 -1.82606 8.58387 5 
100 1 45.067 4.6296 -4.36683 0.16993 1 
101 1 45.7498 6.46173 -2.33273 7.874 5 
102 1 43.827 4.48212 -1.92929 6.12484 5 
103 1 43.0127 7.23682 -2.05192 5.58758 5 
104 1 46.259 0.230166 -8.81748 0.00305166 1 
105 1 43.5239 1.00045 -8.49856 0.00317402 1 
106 1 44.2899 2.81354 -6.40902 0.0324562 1 
107 1 42.2809 0.843266 -5.94659 0.0271173 1 
108 1 43.0246 2.66163 -3.86123 0.177223 1 
109 1 41.5253 3.58408 -6.12449 0.0142561 1 
110 1 42.2687 5.40756 -4.10031 0.0705621 1 
111 1 40.3104 3.43592 -3.53527 0.130641 1 
112 1 40.9985 5.25217 -1.46399 8.01998 5 
113 1 39.5566 6.19118 -3.74914 0.108224 1 
114 1 40.2794 7.95762 -1.54922 5.63284 5 
115 1 38.2589 5.91992 -1.26889 10.4895 5 
116 1 37.5187 8.59516 -1.4752 8.47537 5 
117 1 40.7732 1.76652 -8.1759 0.00455896 1 
118 1 39.5208 1.59126 -5.57012 0.0813612 1 
119 1 38.0383 2.53033 -7.85047 0.00417701 1 
120 1 38.787 4.35057 -5.78203 0.0114775 1 
121 1 36.7848 2.35859 -5.27513 0.117695 1 
122 1 37.509 4.17142 -3.2469 1.60322 5 
123 1 36.0407 5.10975 -5.48582 0.0894991 1 
124 1 36.7667 6.89012 -3.4563 6.51196 5 
125 1 34.8141 4.98995 -2.68967 5.50847 5 
126 1 34.0431 7.75388 -2.96498 5.38688 5 
127 1 31.3459 7.03237 -0.68431 8.25464 5 
128 1 32.3071 9.75069 -0.716078 9.13901 5 
129 1 37.2909 0.704471 -9.93769 0.000921315 1 
130 1 36.0345 0.541359 -7.37804 0.0136924 1 
131 1 34.5491 1.46806 -9.62326 0.00078865 1 
132 1 35.3005 3.29367 -7.55186 0.00978258 1 
133 1 33.3074 1.30679 -7.0401 0.018164 1 
134 1 34.1102 3.14674 -4.93193 0.246019 1 
135 1 32.5747 4.05172 -7.23582 0.0165127 1 
136 1 33.3588 5.89093 -5.17091 0.196572 1 
137 1 31.3004 3.85221 -4.727 0.320956 1 
138 1 32.0752 5.64816 -2.82232 6.86234 5 
139 1 30.5499 6.63043 -4.94951 0.114724 1 
140 1 31.2771 8.4724 -2.92336 5.74372 5 
141 1 29.2987 6.46173 -2.33273 7.874 5 
142 1 28.5534 9.18979 -2.42866 6.57636 5 
143 1 31.0594 0.401436 -11.3803 0.000230923 1 
144 1 31.8124 2.22954 -9.31513 0.00174781 1 
145 1 29.8078 0.230166 -8.81748 0.00305166 1 
146 1 30.5624 2.05059 -6.76887 0.0413307 1 
147 1 29.0637 2.99168 -9.00479 0.00320533 1 
148 1 29.8154 4.81023 -6.96292 0.0220696 1 
149 1 27.8387 2.81354 -6.40902 0.0324562 1 
150 1 28.6159 4.6296 -4.36683 0.16993 1 
151 1 27.0822 5.5747 -6.62077 0.0117995 1 
152 1 27.8185 7.39648 -4.56654 0.0289759 1 
153 1 25.8175 5.40756 -4.10031 0.0705621 1 
154 1 26.5615 7.23682 -2.05192 5.58758 5 
155 1 25.0681 8.18425 -4.18948 0.0531612 1 
156 1 25.7585 9.91957 -1.95315 0.726217 1 
157 1 23.8282 7.95762 -1.54922 5.63284 5 
158 1 23.0998 10.7287 -1.56966 2.67896 5 
159 1 28.3166 1.16664 -11.0673 0.000293 1 
160 1 27.0727 1.00045 -8.49856 0.00317402 1 
161 1 25.5743 1.93402 -10.7474 0.000231387 1 
162 1 26.3263 3.75688 -8.67801 0.00196159 1 
163 1 24.322 1.76652 -8.1759 0.00455896 1 
164 1 25.0741 3.58408 -6.12449 0.0142561 1 
165 1 23.5794 4.52845 -8.35906 0.0015757 1 
166 1 24.3283 6.36027 -6.3003 0.0122268 1 
167 1 22.3358 4.35057 -5.78203 0.0114775 1 
168 1 23.1054 6.19118 -3.74914 0.108224 1 
169 1 21.5913 7.12745 -5.95995 0.0178504 1 
170 1 22.3749 8.96369 -3.85526 0.174189 1 
171 1 20.3155 6.89012 -3.4563 6.51196 5 
172 1 21.0675 8.59516 -1.4752 8.47537 5 
173 1 19.5653 9.63682 -3.5492 1.04623 5 
174 1 20.4149 11.328 -1.60617 8.43445 5 
175 1 17.6157 12.1728 -0.973289 7.91612 5 
176 1 22.0867 0.872504 -12.5031 0.000128746 1 
177 1 22.8333 2.70104 -10.4289 0.000212526 1 
178 1 20.8397 0.704471 -9.93769 0.000921315 1 
179 1 21.5872 2.53033 -7.85047 0.00417701 1 
180 1 20.0965 3.46642 -10.1146 0.00029991 1 
181 1 20.8457 5.29462 -8.03715 0.00187707 1 
182 1 18.8493 3.29367 -7.55186 0.00978258 1 
183 1 19.5895 5.10975 -5.48582 0.0894991 1 
184 1 18.1074 6.05692 -7.74083 0.00643384 1 
185 1 18.8423 7.87883 -5.65995 0.046968 1 
186 1 16.9076 5.89093 -5.17091 0.196572 1 
187 1 17.5919 7.75388 -2.96498 5.38688 5 
188 1 16.1263 8.63547 -5.34868 0.0803718 1 
189 1 16.9023 10.4653 -3.17642 1.0651 5 
190 1 14.8259 8.4724 -2.92336 5.74372 5 
191 1 15.8559 9.75069 -0.716078 9.13901 5 
192 1 14.1201 11.1808 -2.8818 0.44854 1 
193 1 14.963 12.9304 -0.857158 5.65843 5 
194 1 19.3458 1.63756 -12.1891 8.91128e-05 1 
195 1 18.0979 1.46806 -9.62326 0.00078865 1 
196 1 16.6048 2.40112 -11.8778 0.000119617 1 
197 1 17.3557 4.22931 -9.80669 0.000463818 1 
198 1 15.3613 2.22954 -9.31513 0.00174781 1 
199 1 16.1235 4.05172 -7.23582 0.0165127 1 
200 1 14.6158 4.9902 -9.49999 0.00194119 1 
201 1 15.3726 6.81534 -7.43719 0.0139805 1 
202 1 13.3642 4.81023 -6.96292 0.0220696 1 
203 1 14.0987 6.63043 -4.94951 0.114724 1 
204 1 12.6089 7.58757 -7.12542 0.0118699 1 
205 1 13.3439 9.41072 -5.04157 0.0513145 1 
206 1 11.3674 7.39648 -4.56654 0.0289759 1 
207 1 12.1022 9.18979 -2.42866 6.57636 5 
208 1 10.5895 10.1399 -4.65215 0.0699865 1 
209 1 11.3305 11.881 -2.67627 0.828045 1 
210 1 9.30735 9.91957 -1.95315 0.726217 1 
211 1 8.73727 12.814 -1.9729 6.36774 5 
212 1 15.8553 0.572988 -13.9462 7.97364e-05 1 
213 1 14.6083 0.401436 -11.3803 0.000230923 1 
214 1 13.113 1.33731 -13.6328 0.000100961 1 
215 1 13.8618 3.16456 -11.5657 0.000221011 1 
216 1 11.8654 1.16664 -11.0673 0.000293 1 
217 1 12.6125 2.99168 -9.00479 0.00320533 1 
218 1 11.1175 3.9303 -11.2489 0.000334709 1 
219 1 11.8655 5.75778 -9.18597 0.0025603 1 
220 1 9.87514 3.75688 -8.67801 0.00196159 1 
221 1 10.631 5.5747 -6.62077 0.0117995 1 
222 1 9.12448 6.52549 -8.85378 0.0017363 1 
223 1 9.86463 8.35243 -6.77074 0.00670244 1 
224 1 7.87713 6.36027 -6.3003 0.0122268 1 
225 1 8.61695 8.18425 -4.18948 0.0531612 1 
226 1 7.1365 9.13982 -6.40869 0.0217281 1 
227 1 7.90749 10.969 -4.21222 0.193935 1 
228 1 5.92372 8.96369 -3.85526 0.174189 1 
229 1 6.64863 10.7287 -1.56966 2.67896 5 
230 1 5.19366 11.7196 -3.97992 0.241636 1 
231 1 5.9624 13.4744 -1.67506 5.60536 5 
232 1 3.96369 11.328 -1.60617 8.43445 5 
234 1 10.3703 2.10301 -13.3168 7.9559e-05 1 
235 1 9.12308 1.93402 -10.7474 0.000231387 1 
236 1 7.62915 2.8696 -12.9987 4.41423e-05 1 
237 1 8.37665 4.6975 -10.9255 0.000201164 1 
238 1 6.3821 2.70104 -10.4289 0.000212526 1 
239 1 7.12818 4.52845 -8.35906 0.0015757 1 
240 1 5.6378 5.46661 -10.6043 0.000423179 1 
241 1 6.38505 7.30128 -8.51993 0.00337451 1 
242 1 4.39448 5.29462 -8.03715 0.00187707 1 
243 1 5.14013 7.12745 -5.95995 0.0178504 1 
244 1 3.64928 8.06291 -8.20396 0.00306241 1 
245 1 4.39289 9.8884 -6.08442 0.0196389 1 
246 1 2.39116 7.87883 -5.65995 0.046968 1 
247 1 3.11412 9.63682 -3.5492 1.04623 5 
248 1 1.65555 10.6464 -5.7904 0.0215027 1 
249 1 2.40545 12.4455 -3.6478 0.157516 1 
250 1 1.16457 12.1728 -0.973289 7.91612 5 
252 1 5.63554 0.872504 -12.5031 0.000128746 1 
253 1 4.14071 1.80704 -14.7562 4.79786e-05 1 
254 1 4.88937 3.63599 -12.682 7.07638e-05 1 
255 1 2.89462 1.63756 -12.1891 8.91128e-05 1 
256 1 3.6453 3.46642 -10.1146 0.00029991 1 
257 1 2.14934 4.40057 -12.3687 0.000106921 1 
258 1 2.90053 6.23094 -10.2919 0.00076248 1 
259 1 0.904472 4.22931 -9.80669 0.000463818 1 
260 1 1.65627 6.05692 -7.74083 0.00643384 1 
261 1 0.907069 8.82522 -7.89798 0.0031438 1 
263 1 1.39947 2.57154 -14.4425 6.26877e-05 1 
264 1 0.456437 5.89093 -5.17091 0.196572 1 
265 1 49.0286 8.63547 -5.34868 0.0803718 1 
266 1 0.451155 10.4653 -3.17642 1.0651 5 
267 1 47.7283 8.4724 -2.92336 5.74372 5 
268 1 48.7582 9.75069 -0.716078 9.13901 5 
269 1 47.0224 11.1808 -2.8818 0.44854 1 
270 1 47.8654 12.9304 -0.857158 5.65843 5 
271 1 0.153641 2.40112 -11.8778 0.000119617 1 
272 1 48.2636 2.22954 -9.31513 0.00174781 1 
273 1 49.0259 4.05172 -7.23582 0.0165127 1 
274 1 47.5182 4.9902 -9.49999 0.00194119 1 
275 1 48.275 6.81534 -7.43719 0.0139805 1 
276 1 46.2666 4.81023 -6.96292 0.0220696 1 
277 1 47.001 6.63043 -4.94951 0.114724 1 
278 1 45.5112 7.58757 -7.12542 0.0118699 1 
279 1 46.2462 9.41072 -5.04157 0.0513145 1 
280 1 44.2697 7.39648 -4.56654 0.0289759 1 
281 1 45.0046 9.18979 -2.42866 6.57636 5 
282 1 43.4918 10.1399 -4.65215 0.0699865 1 
283 1 44.2329 11.881 -2.67627 0.828045 1 
284 1 42.2097 9.91957 -1.95315 0.726217 1 
285 1 41.6396 12.814 -1.9729 6.36774 5 
286 1 48.7577 0.572988 -13.9462 7.97364e-05 1 
287 1 47.5106 0.401436 -11.3803 0.000230923 1 
288 1 46.0153 1.33731 -13.6328 0.000100961 1 
289 1 46.7642 3.16456 -11.5657 0.000221011 1 
290 1 44.7677 1.16664 -11.0673 0.000293 1 
291 1 45.5149 2.99168 -9.00479 0.00320533 1 
292 1 44.0199 3.9303 -11.2489 0.000334709 1 
293 1 44.7678 5.75778 -9.18597 0.0025603 1 
294 1 42.7775 3.75688 -8.67801 0.00196159 1 
295 1 43.5334 5.5747 -6.62077 0.0117995 1 
296 1 42.0268 6.52549 -8.85378 0.0017363 1 
297 1 42.767 8.35243 -6.77074 0.00670244 1 
298 1 40.7795 6.36027 -6.3003 0.0122268 1 
299 1 41.5193 8.18425 -4.18948 0.0531612 1 
300 1 40.0389 9.13982 -6.40869 0.0217281 1 
301 1 40.8098 10.969 -4.21222 0.193935 1 
302 1 38.8261 8.96369 -3.85526 0.174189 1 
303 1 39.551 10.7287 -1.56966 2.67896 5 
304 1 38.096 11.7196 -3.97992 0.241636 1 
305 1 38.8648 13.4744 -1.67506 5.60536 5 
306 1 36.866 11.328 -1.60617 8.43445 5 
308 1 43.2727 2.10301 -13.3168 7.9559e-05 1 
309 1 42.0254 1.93402 -10.7474 0.000231387 1 
310 1 40.5315 2.8696 -12.9987 4.41423e-05 1 
311 1 41.279 4.6975 -10.9255 0.000201164 1 
312 1 39.2845 2.70104 -10.4289 0.000212526 1 
313 1 40.0305 4.52845 -8.35906 0.0015757 1 
314 1 38.5402 5.46661 -10.6043 0.000423179 1 
315 1 39.2874 7.30128 -8.51993 0.00337451 1 
316 1 37.2968 5.29462 -8.03715 0.00187707 1 
317 1 38.0425 7.12745 -5.95995 0.0178504 1 
318 1 36.5516 8.06291 -8.20396 0.00306241 1 
319 1 37.2952 9.8884 -6.08442 0.0196389 1 
320 1 35.2935 7.87883 -5.65995 0.046968 1 
321 1 36.0165 9.63682 -3.5492 1.04623 5 
322 1 34.5579 10.6464 -5.7904 0.0215027 1 
323 1 35.3078 12.4455 -3.6478 0.157516 1 
324 1 33.3535 10.4653 -3.17642 1.0651 5 
325 1 34.0669 12.1728 -0.973289 7.91612 5 
326 1 32.5936 13.2434 -3.30942 0.244612 1 
327 1 33.3267 15.094 -0.883868 8.37289 5 
328 1 31.4142 12.9304 -0.857158 5.65843 5 
329 1 30.4452 15.8001 -1.10606 6.94673 5 
331 1 38.5379 0.872504 -12.5031 0.000128746 1 
332 1 37.0431 1.80704 -14.7562 4.79786e-05 1 
333 1 37.7917 3.63599 -12.682 7.07638e-05 1 
334 1 35.797 1.63756 -12.1891 8.91128e-05 1 
335 1 36.5477 3.46642 -10.1146 0.00029991 1 
336 1 35.0517 4.40057 -12.3687 0.000106921 1 
337 1 35.8029 6.23094 -10.2919 0.00076248 1 
338 1 33.8068 4.22931 -9.80669 0.000463818 1 
339 1 34.5586 6.05692 -7.74083 0.00643384 1 
340 1 33.0605 6.99477 -9.98392 0.00126368 1 
341 1 33.8094 8.82522 -7.89798 0.0031438 1 
342 1 31.8238 6.81534 -7.43719 0.0139805 1 
343 1 32.5775 8.63547 -5.34868 0.0803718 1 
344 1 31.0651 9.58762 -7.57461 0.00744775 1 
345 1 31.8278 11.3992 -5.42781 0.050567 1 
346 1 29.7951 9.41072 -5.04157 0.0513145 1 
347 1 30.5712 11.1808 -2.8818 0.44854 1 
348 1 29.0681 12.1538 -5.16517 0.0450988 1 
349 1 29.8234 13.9683 -3.12908 0.143843 1 
350 1 27.7817 11.881 -2.67627 0.828045 1 
351 1 27.0745 14.8034 -2.83877 6.64766 5 
352 1 24.4371 17.5419 -0.452115 7.61501 5 
354 1 34.3018 2.57154 -14.4425 6.26877e-05 1 
355 1 32.3065 0.572988 -13.9462 7.97364e-05 1 
356 1 33.056 2.40112 -11.8778 0.000119617 1 
357 1 31.5596 3.33566 -14.1292 8.48276e-05 1 
358 1 32.3096 5.16439 -12.0576 0.000255142 1 
359 1 30.313 3.16456 -11.5657 0.000221011 1 
360 1 31.067 4.9902 -9.49999 0.00194119 1 
361 1 29.5653 5.92904 -11.7424 0.000382994 1 
362 1 30.3148 7.75889 -9.66761 0.00171724 1 
363 1 28.3167 5.75778 -9.18597 0.0025603 1 
364 1 29.06 7.58757 -7.12542 0.0118699 1 
365 1 27.5647 8.52521 -9.34123 0.00176905 1 
366 1 28.3033 10.3485 -7.2451 0.00791787 1 
367 1 26.3158 8.35243 -6.77074 0.00670244 1 
368 1 27.0406 10.1399 -4.65215 0.0699865 1 
369 1 25.5647 11.1174 -6.88568 0.0147632 1 
370 1 26.2907 12.9402 -4.78725 0.147761 1 
371 1 24.3587 10.969 -4.21222 0.193935 1 
372 1 25.1884 12.814 -1.9729 6.36774 5 
373 1 23.597 13.6902 -4.40623 0.0944801 1 
374 1 24.2934 15.5327 -2.40175 6.22523 5 
375 1 22.4136 13.4744 -1.67506 5.60536 5 
376 1 21.6203 16.2931 -1.76166 7.79939 5 
378 1 29.5641 1.33731 -13.6328 0.000100961 1 
380 1 28.8164 4.10053 -13.8138 0.00010279 1 
381 1 26.8215 2.10301 -13.3168 7.9559e-05 1 
382 1 27.5687 3.9303 -11.2489 0.000334709 1 
383 1 26.0738 4.86649 -13.4949 9.93777e-05 1 
384 1 26.8204 6.69559 -11.4208 0.000478762 1 
385 1 24.8278 4.6975 -10.9255 0.000201164 1 
386 1 25.5757 6.52549 -8.85378 0.0017363 1 
387 1 24.08 7.46313 -11.0929 0.000464324 1 
388 1 24.8241 9.29316 -9.00091 0.00178749 1 
389 1 22.8362 7.30128 -8.51993 0.00337451 1 
390 1 23.5877 9.13982 -6.40869 0.0217281 1 
391 1 22.0893 10.0589 -8.66671 0.00143332 1 
392 1 22.8458 11.8793 -6.55007 0.0100422 1 
393 1 20.8441 9.8884 -6.08442 0.0196389 1 
394 1 21.6448 11.7196 -3.97992 0.241636 1 
395 1 20.1071 12.6467 -6.21252 0.0305858 1 
396 1 20.8579 14.467 -4.00102 0.310545 1 
397 1 18.8566 12.4455 -3.6478 0.157516 1 
398 1 18.0926 15.1834 -3.81785 0.313572 1 
399 1 18.665 17.0903 -1.94485 8.03222 5 
400 1 16.8755 15.094 -0.883868 8.37289 5 
401 1 15.9289 17.8668 -1.23995 8.77026 5 
407 1 24.0803 2.8696 -12.9987 4.41423e-05 1 
409 1 23.3334 5.63309 -13.1741 0.000100548 1 
410 1 21.3405 3.63599 -12.682 7.07638e-05 1 
411 1 22.089 5.46661 -10.6043 0.000423179 1 
412 1 20.5942 6.39897 -12.8565 0.000178185 1 
413 1 21.3426 8.22985 -10.7702 0.000606276 1 
414 1 19.3517 6.23094 -10.2919 0.00076248 1 
415 1 20.1005 8.06291 -8.20396 0.00306241 1 
416 1 18.6032 8.99398 -10.4547 0.000892855 1 
417 1 19.3544 10.8226 -8.34813 0.00400615 1 
418 1 17.3582 8.82522 -7.89798 0.0031438 1 
419 1 18.1067 10.6464 -5.7904 0.0215027 1 
420 1 16.6046 11.5775 -8.03495 0.00414332 1 
421 1 17.3584 13.3866 -5.92826 0.0131513 1 
422 1 15.3766 11.3992 -5.42781 0.050567 1 
423 1 16.1424 13.2434 -3.30942 0.244612 1 
424 1 14.625 14.1578 -5.62672 0.0218549 1 
425 1 15.4146 15.9961 -3.49354 0.47579 1 
426 1 13.3722 13.9683 -3.12908 0.143843 1 
427 1 13.994 15.8001 -1.10606 6.94673 5 
428 1 12.5896 16.7658 -3.31714 6.48868 5 
429 1 13.0894 18.6861 -1.38218 10.2908 5 
431 1 20.5919 1.80704 -14.7562 4.79786e-05 1 
433 1 19.8451 4.56932 -14.9351 5.40695e-05 1 
434 1 17.8507 2.57154 -14.4425 6.26877e-05 1 
435 1 18.6005 4.40057 -12.3687 0.000106921 1 
436 1 17.1036 5.33379 -14.6208 8.41566e-05 1 
437 1 17.8533 7.16344 -12.5424 0.000288323 1 
438 1 15.8584 5.16439 -12.0576 0.000255142 1 
439 1 16.6093 6.99477 -9.98392 0.00126368 1 
440 1 15.1091 7.92722 -12.2278 0.000307869 1 
441 1 15.8575 9.75555 -10.1403 0.000714471 1 
442 1 13.8636 7.75889 -9.66761 0.00171724 1 
443 1 14.6139 9.58762 -7.57461 0.00744775 1 
444 1 13.1096 10.5179 -9.8168 0.000857598 1 
445 1 13.8635 12.3359 -7.71753 0.00533985 1 
446 1 11.8522 10.3485 -7.2451 0.00791787 1 
447 1 12.6169 12.1538 -5.16517 0.0450988 1 
448 1 11.101 13.0973 -7.39474 0.0112374 1 
449 1 11.8547 14.9196 -5.36446 0.0487325 1 
450 1 9.83951 12.9402 -4.78725 0.147761 1 
451 1 10.6233 14.8034 -2.83877 6.64766 5 
452 1 9.09901 15.7476 -4.95694 0.194217 1 
453 1 9.94446 17.598 -2.62932 7.74774 5 
454 1 7.84223 15.5327 -2.40175 6.22523 5 
455 1 7.98595 17.5419 -0.452115 7.61501 5 
456 1 7.05909 18.3072 -2.83383 6.16806 5 
457 1 6.46082 19.9611 -0.766745 11.2417 5 
463 1 15.1084 3.33566 -14.1292 8.48276e-05 1 
465 1 14.3604 6.09811 -14.3059 0.00010596 1 
466 1 12.3652 4.10053 -13.8138 0.00010279 1 
467 1 13.1141 5.92904 -11.7424 0.000382994 1 
468 1 11.6169 6.86318 -13.9875 0.000121307 1 
469 1 12.3637 8.69178 -11.9073 0.000345261 1 
470 1 10.3692 6.69559 -11.4208 0.000478762 1 
471 1 11.1135 8.52521 -9.34123 0.00176905 1 
472 1 9.61964 9.45716 -11.581 0.000430942 1 
473 1 10.362 11.2816 -9.48611 0.00160987 1 
474 1 8.37296 9.29316 -9.00091 0.00178749 1 
475 1 9.1135 11.1174 -6.88568 0.0147632 1 
476 1 7.62658 12.0491 -9.15004 0.0019351 1 
477 1 8.36761 13.8804 -7.03961 0.0176617 1 
478 1 6.39459 11.8793 -6.55007 0.0100422 1 
479 1 7.1458 13.6902 -4.40623 0.0944801 1 
480 1 5.62955 14.6118 -6.70856 0.0352256 1 
481 1 6.3413 16.4251 -4.67824 0.261266 1 
482 1 4.40677 14.467 -4.00102 0.310545 1 
483 1 5.16914 16.2931 -1.76166 7.79939 5 
484 1 3.65727 17.2018 -4.32869 0.258577 1 
485 1 4.32267 19.0404 -2.24414 8.07024 5 
486 1 2.21384 17.0903 -1.94485 8.03222 5 
487 1 1.61775 19.8981 -2.25032 5.87182 5 
495 1 9.62259 4.86649 -13.4949 9.93777e-05 1 
497 1 8.87447 7.62889 -13.6659 0.000137559 1 
498 1 6.88225 5.63309 -13.1741 0.000100548 1 
499 1 7.62883 7.46313 -11.0929 0.000464324 1 
500 1 6.13458 8.39456 -13.3437 0.000177847 1 
501 1 6.8806 10.2229 -11.252 0.000557824 1 
502 1 4.89147 8.22985 -10.7702 0.000606276 1 
503 1 5.63812 10.0589 -8.66671 0.00143332 1 
504 1 4.14256 10.9852 -10.9306 0.000623833 1 
505 1 4.8898 12.8053 -8.82376 0.00271345 1 
506 1 2.90325 10.8226 -8.34813 0.00400615 1 
507 1 3.65592 12.6467 -6.21252 0.0305858 1 
508 1 2.15173 13.5639 -8.51029 0.00358804 1 
509 1 2.9023 15.3723 -6.39149 0.0385316 1 
510 1 0.907243 13.3866 -5.92826 0.0131513 1 
511 1 1.64147 15.1834 -3.81785 0.313572 1 
512 1 0.840388 17.9755 -4.13699 0.311413 1 
521 1 3.39395 4.56932 -14.9351 5.40695e-05 1 
522 1 4.14298 6.39897 -12.8565 0.000178185 1 
524 1 3.39461 9.15871 -13.0252 0.000199641 1 
525 1 1.40209 7.16344 -12.5424 0.000288323 1 
526 1 2.15198 8.99398 -10.4547 0.000892855 1 
527 1 0.652221 9.92179 -12.709 0.000231348 1 
528 1 1.40077 11.746 -10.6138 0.000847215 1 
536 1 0.652391 5.33379 -14.6208 8.41566e-05 1 
537 1 0.424346 15.094 -0.883868 8.37289 5 
538 1 48.8312 17.8668 -1.23995 8.77026 5 
539 1 0.153432 11.5775 -8.03495 0.00414332 1 
540 1 48.279 11.3992 -5.42781 0.050567 1 
541 1 49.0447 13.2434 -3.30942 0.244612 1 
542 1 47.5273 14.1578 -5.62672 0.0218549 1 
543 1 48.317 15.9961 -3.49354 0.47579 1 
544 1 46.2745 13.9683 -3.12908 0.143843 1 
545 1 46.8963 15.8001 -1.10606 6.94673 5 
546 1 45.492 16.7658 -3.31714 6.48868 5 
547 1 45.9918 18.6861 -1.38218 10.2908 5 
548 1 48.7607 5.16439 -12.0576 0.000255142 1 
549 1 0.158112 6.99477 -9.98392 0.00126368 1 
550 1 48.0114 7.92722 -12.2278 0.000307869 1 
551 1 48.7598 9.75555 -10.1403 0.000714471 1 
552 1 46.766 7.75889 -9.66761 0.00171724 1 
553 1 47.5162 9.58762 -7.57461 0.00744775 1 
554 1 46.012 10.5179 -9.8168 0.000857598 1 
555 1 46.7659 12.3359 -7.71753 0.00533985 1 
556 1 44.7545 10.3485 -7.2451 0.00791787 1 
557 1 45.5193 12.1538 -5.16517 0.0450988 1 
558 1 44.0034 13.0973 -7.39474 0.0112374 1 
559 1 44.7571 14.9196 -5.36446 0.0487325 1 
560 1 42.7419 12.9402 -4.78725 0.147761 1 
561 1 43.5257 14.8034 -2.83877 6.64766 5 
562 1 42.0014 15.7476 -4.95694 0.194217 1 
563 1 42.8468 17.598 -2.62932 7.74774 5 
564 1 40.7446 15.5327 -2.40175 6.22523 5 
565 1 40.8883 17.5419 -0.452115 7.61501 5 
566 1 39.9614 18.3072 -2.83383 6.16806 5 
567 1 39.3632 19.9611 -0.766745 11.2417 5 
571 1 48.0107 3.33566 -14.1292 8.48276e-05 1 
573 1 47.2628 6.09811 -14.3059 0.00010596 1 
574 1 45.2676 4.10053 -13.8138 0.00010279 1 
575 1 46.0165 5.92904 -11.7424 0.000382994 1 
576 1 44.5192 6.86318 -13.9875 0.000121307 1 
577 1 45.266 8.69178 -11.9073 0.000345261 1 
578 1 43.2715 6.69559 -11.4208 0.000478762 1 
579 1 44.0159 8.52521 -9.34123 0.00176905 1 
580 1 42.522 9.45716 -11.581 0.000430942 1 
581 1 43.2644 11.2816 -9.48611 0.00160987 1 
582 1 41.2753 9.29316 -9.00091 0.00178749 1 
583 1 42.0159 11.1174 -6.88568 0.0147632 1 
584 1 40.5289 12.0491 -9.15004 0.0019351 1 
585 1 41.27 13.8804 -7.03961 0.0176617 1 
586 1 39.2969 11.8793 -6.55007 0.0100422 1 
587 1 40.0482 13.6902 -4.40623 0.0944801 1 
588 1 38.5319 14.6118 -6.70856 0.0352256 1 
589 1 39.2437 16.4251 -4.67824 0.261266 1 
590 1 37.3091 14.467 -4.00102 0.310545 1 
591 1 38.0715 16.2931 -1.76166 7.79939 5 
592 1 36.5596 17.2018 -4.32869 0.258577 1 
593 1 37.225 19.0404 -2.24414 8.07024 5 
594 1 35.1162 17.0903 -1.94485 8.03222 5 
595 1 34.5201 19.8981 -2.25032 5.87182 5 
603 1 42.5249 4.86649 -13.4949 9.93777e-05 1 
605 1 41.7768 7.62889 -13.6659 0.000137559 1 
606 1 39.7846 5.63309 -13.1741 0.000100548 1 
607 1 40.5312 7.46313 -11.0929 0.000464324 1 
608 1 39.0369 8.39456 -13.3437 0.000177847 1 
609 1 39.783 10.2229 -11.252 0.000557824 1 
610 1 37.7938 8.22985 -10.7702 0.000606276 1 
611 1 38.5405 10.0589 -8.66671 0.00143332 1 
612 1 37.0449 10.9852 -10.9306 0.000623833 1 
613 1 37.7922 12.8053 -8.82376 0.00271345 1 
614 1 35.8056 10.8226 -8.34813 0.00400615 1 
615 1 36.5583 12.6467 -6.21252 0.0305858 1 
616 1 35.0541 13.5639 -8.51029 0.00358804 1 
617 1 35.8047 15.3723 -6.39149 0.0385316 1 
618 1 33.8096 13.3866 -5.92826 0.0131513 1 
619 1 34.5438 15.1834 -3.81785 0.313572 1 
620 1 33.055 16.1299 -6.14405 0.0343805 1 
621 1 33.7427 17.9755 -4.13699 0.311413 1 
622 1 31.8658 15.9961 -3.49354 0.47579 1 
623 1 32.38 17.8668 -1.23995 8.77026 5 
624 1 31.0624 18.7484 -3.77445 0.335576 1 
625 1 31.8443 20.5879 -1.77539 8.66288 5 
626 1 29.5406 18.6861 -1.38218 10.2908 5 
627 1 29.1825 21.5095 -1.54714 7.17095 5 
636 1 36.2963 4.56932 -14.9351 5.40695e-05 1 
637 1 37.0453 6.39897 -12.8565 0.000178185 1 
639 1 36.297 9.15871 -13.0252 0.000199641 1 
640 1 34.3044 7.16344 -12.5424 0.000288323 1 
641 1 35.0543 8.99398 -10.4547 0.000892855 1 
642 1 33.5546 9.92179 -12.709 0.000231348 1 
643 1 34.3031 11.746 -10.6138 0.000847215 1 
644 1 32.3087 9.75555 -10.1403 0.000714471 1 
645 1 33.0558 11.5775 -8.03495 0.00414332 1 
646 1 31.5573 12.5059 -10.3007 0.000719312 1 
647 1 32.3084 14.3206 -8.21274 0.00179869 1 
648 1 30.3147 12.3359 -7.71753 0.00533985 1 
649 1 31.0761 14.1578 -5.62672 0.0218549 1 
650 1 29.5626 15.0874 -7.90329 0.00293696 1 
651 1 30.3187 16.908 -5.81646 0.036919 1 
652 1 28.3059 14.9196 -5.36446 0.0487325 1 
653 1 29.0408 16.7658 -3.31714 6.48868 5 
654 1 27.5409 17.6862 -5.52083 0.169484 1 
655 1 28.2351 19.5883 -3.53909 6.86235 5 
656 1 26.3956 17.598 -2.62932 7.74774 5 
657 1 25.5298 20.375 -3.04259 6.8585 5 
658 1 22.912 19.9611 -0.766745 11.2417 5 
659 1 23.9204 22.6634 -0.839016 8.93571 5 
668 1 33.5547 5.33379 -14.6208 8.41566e-05 1 
670 1 32.8062 8.09431 -14.7941 8.81111e-05 1 
671 1 30.8116 6.09811 -14.3059 0.00010596 1 
672 1 31.5602 7.92722 -12.2278 0.000307869 1 
673 1 30.0624 8.85829 -14.4767 9.15016e-05 1 
674 1 30.8094 10.6843 -12.3914 0.000203934 1 
675 1 28.8149 8.69178 -11.9073 0.000345261 1 
676 1 29.5608 10.5179 -9.8168 0.000857598 1 
677 1 28.0644 11.4478 -12.0686 0.000308064 1 
678 1 28.8103 13.268 -9.97883 0.00109125 1 
679 1 26.8132 11.2816 -9.48611 0.00160987 1 
680 1 27.5522 13.0973 -7.39474 0.0112374 1 
681 1 26.0642 14.0319 -9.65396 0.00258455 1 
682 1 26.8048 15.8546 -7.58548 0.0117934 1 
683 1 24.8188 13.8804 -7.03961 0.0176617 1 
684 1 25.5502 15.7476 -4.95694 0.194217 1 
685 1 24.0665 16.6211 -7.24892 0.0140571 1 
686 1 24.8634 18.4736 -5.17787 0.257392 1 
687 1 22.7925 16.4251 -4.67824 0.261266 1 
688 1 23.5103 18.3072 -2.83383 6.16806 5 
689 1 22.0422 19.209 -4.97369 0.165544 1 
690 1 22.7955 21.1741 -3.05464 6.13189 5 
691 1 20.7738 19.0404 -2.24414 8.07024 5 
692 1 20.1289 21.8225 -2.58393 4.09183 5 
702 1 28.068 6.86318 -13.9875 0.000121307 1 
704 1 27.3189 9.62272 -14.156 0.000111198 1 
705 1 25.3256 7.62889 -13.6659 0.000137559 1 
706 1 26.0708 9.45716 -11.581 0.000430942 1 
707 1 24.5771 10.3871 -13.8334 0.000156386 1 
708 1 25.3221 12.2114 -11.7438 0.000496284 1 
709 1 23.3318 10.2229 -11.252 0.000557824 1 
710 1 24.0778 12.0491 -9.15004 0.0019351 1 
711 1 22.5832 12.9737 -11.419 0.000820197 1 
712 1 23.3256 14.7932 -9.32284 0.00452075 1 
713 1 21.341 12.8053 -8.82376 0.00271345 1 
714 1 22.0807 14.6118 -6.70856 0.0352256 1 
715 1 20.5891 15.5456 -9.01374 0.00566382 1 
716 1 21.3253 17.3616 -6.9684 0.0208419 1 
717 1 19.3535 15.3723 -6.39149 0.0385316 1 
718 1 20.1085 17.2018 -4.32869 0.258577 1 
719 1 18.5994 18.1241 -6.6476 0.0299371 1 
720 1 19.365 19.9769 -4.65253 0.163121 1 
721 1 17.2916 17.9755 -4.13699 0.311413 1 
722 1 18.0689 19.8981 -2.25032 5.87182 5 
723 1 16.5875 20.749 -4.37897 0.148146 1 
724 1 17.3803 22.5379 -2.23159 6.22544 5 
725 1 15.3931 20.5879 -1.77539 8.66288 5 
726 1 14.8832 23.3935 -1.28766 11.2697 5 
740 1 22.5858 8.39456 -13.3437 0.000177847 1 
742 1 21.8371 11.1507 -13.5122 0.000213136 1 
743 1 19.8458 9.15871 -13.0252 0.000199641 1 
744 1 20.5937 10.9852 -10.9306 0.000623833 1 
745 1 19.0962 11.9127 -13.1945 0.000245778 1 
746 1 19.8439 13.7327 -11.1029 0.000870316 1 
747 1 17.8519 11.746 -10.6138 0.000847215 1 
748 1 18.6029 13.5639 -8.51029 0.00358804 1 
749 1 17.1028 14.4933 -10.7918 0.000721918 1 
750 1 17.8548 16.3074 -8.7092 0.00493193 1 
751 1 15.8573 14.3206 -8.21274 0.00179869 1 
752 1 16.6038 16.1299 -6.14405 0.0343805 1 
753 1 15.103 17.072 -8.41167 0.0039269 1 
754 1 15.842 18.9003 -6.38083 0.0233296 1 
755 1 13.8676 16.908 -5.81646 0.036919 1 
756 1 14.6112 18.7484 -3.77445 0.335576 1 
757 1 13.1076 19.6808 -6.03165 0.0305839 1 
758 1 13.9051 21.5383 -4.00475 0.604448 1 
759 1 11.7839 19.5883 -3.53909 6.86235 5 
760 1 12.7313 21.5095 -1.54714 7.17095 5 
761 1 11.1119 22.3065 -3.64822 1.7843 5 
762 1 11.9898 24.1285 -1.70602 8.60232 5 
763 1 9.19574 24.972 -1.04556 8.09628 5 
778 1 16.355 8.09431 -14.7941 8.81111e-05 1 
779 1 17.1034 9.92179 -12.709 0.000231348 1 
780 1 15.6055 10.8512 -14.9652 7.26312e-05 1 
781 1 16.3533 12.6744 -12.879 0.000246525 1 
782 1 14.3582 10.6843 -12.3914 0.000203934 1 
783 1 15.1061 12.5059 -10.3007 0.000719312 1 
784 1 13.6084 13.4365 -12.562 0.000283114 1 
785 1 14.3571 15.255 -10.482 0.000396116 1 
786 1 12.3591 13.268 -9.97883 0.00109125 1 
787 1 13.1114 15.0874 -7.90329 0.00293696 1 
788 1 11.6117 16.0201 -10.1637 0.000391602 1 
789 1 12.3584 17.8422 -8.0854 0.00599108 1 
790 1 10.3537 15.8546 -7.58548 0.0117934 1 
791 1 11.0897 17.6862 -5.52083 0.169484 1 
792 1 9.61511 18.6105 -7.79231 0.00830532 1 
793 1 10.3507 20.4612 -5.74116 0.0481419 1 
794 1 8.41225 18.4736 -5.17787 0.257392 1 