ITEM: TIMESTEP
0
ITEM: NUMBER OF ATOMS
8632
ITEM: BOX BOUNDS xy xz yz pp pp ss
0 116.6200411 7.195066803
0 44.151285527 0
-107.4430890129293 103.2714843536647 0
ITEM: ATOMS id type x y z c_csym c_cna 
1 1 4.68129 0.777352 -4.85954 0.0503914 1 
2 1 7.34182 1.4705 -2.22105 6.17393 5 
4989 1 58.7181 25.9707 -1.37725 7.85842 5 
4 1 2.12739 1.95373 -5.4995 0.0176971 1 
1067 1 55.1205 3.89498 -1.37722 7.85857 5 
6 1 2.60667 0.88715 -2.97572 0.166054 1 
7 1 2.43128 3.79518 -3.31524 7 5 
8 1 4.89721 2.63961 -2.69697 0.188717 1 
9 1 2.76474 2.68857 -0.830846 7.2452 5 
10 1 4.99092 4.41076 -0.479453 8.84592 5 
14 1 8.74585 0.479519 -8.87324 0.00120386 1 
15 1 11.5694 1.15362 -6.09651 0.0156394 1 
16 1 14.4359 1.76061 -3.34738 0.0822723 1 
17 1 16.9662 0.575526 -2.67426 0.0906984 1 
18 1 14.8837 0.788549 -0.668188 7.92552 5 
19 1 17.2174 2.35775 -0.56637 1.96333 5 
21 1 0.819011 2.13681 -12.8969 0.00021473 1 
22 1 3.36618 0.978059 -12.2881 0.000232434 1 
23 1 1.33751 1.12763 -10.2828 0.000878109 1 
24 1 3.66356 2.7989 -10.092 0.000497681 1 
25 1 6.20604 1.64043 -9.4822 0.000813762 1 
26 1 4.17405 1.78794 -7.48031 0.00219497 1 
27 1 6.7111 0.629138 -6.86935 0.00463656 1 
28 1 6.5004 3.47473 -7.28656 0.0126151 1 
29 1 9.03525 2.31396 -6.68415 0.0108153 1 
30 1 6.98208 2.49111 -4.71281 0.121069 1 
31 1 9.51263 1.32866 -4.09084 0.135194 1 
32 1 9.32551 4.14326 -4.44049 0.0378677 1 
33 1 11.8324 2.99566 -3.8565 0.13444 1 
34 1 9.68892 3.11357 -1.74798 6.59975 5 
35 1 12.4136 2.01062 -1.35506 4.57494 5 
36 1 12.2295 4.78837 -1.51984 5.14337 5 
37 1 14.7967 3.53658 -1.16122 6.53777 5 
38 1 1.11929 3.95787 -10.6971 0.00065332 1 
39 1 1.63459 2.95675 -8.08856 0.0022609 1 
40 1 1.42521 5.78493 -8.48508 0.00551935 1 
41 1 3.9631 4.62681 -7.89146 0.00441534 1 
42 1 1.94089 4.79875 -5.87979 0.0308885 1 
43 1 4.46404 3.62478 -5.30261 0.0296839 1 
44 1 4.26742 6.44864 -5.65729 0.0338956 1 
45 1 6.79788 5.29457 -5.01722 0.0366374 1 
46 1 4.74798 5.45116 -3.05079 7.07102 5 
47 1 7.25474 4.28721 -2.37105 7.42471 5 
48 1 7.15016 7.09941 -2.78437 0.116844 1 
49 1 9.6546 5.91739 -2.1994 5.13967 5 
50 1 1.75213 7.59929 -6.22208 0.0305704 1 
51 1 2.26127 6.60326 -3.52957 1.41679 5 
52 1 2.05843 9.41291 -3.88677 0.213814 1 
53 1 4.54187 8.20566 -3.34305 0.367747 1 
54 1 2.55476 8.37019 -0.935125 7.48075 5 
55 1 5.00592 9.98552 -1.34682 7.69866 5 
56 1 7.59497 8.84316 -0.662029 9.26427 5 
58 1 2.30765 11.1961 -1.64587 6.07363 5 
60 1 15.6505 0.824163 -10.1097 0.000495536 1 
61 1 18.5042 1.47097 -7.29683 0.00208378 1 
62 1 21.0403 0.310493 -6.68386 0.00361796 1 
63 1 19.0156 0.443437 -4.66031 0.039448 1 
64 1 21.3409 2.13731 -4.48536 0.0796379 1 
65 1 23.8603 1.00751 -3.93641 0.851829 5 
66 1 21.7779 1.0979 -1.93433 5.52031 5 
67 1 24.0465 2.83453 -0.96708 11.9837 5 
71 1 5.39146 0.830306 -14.2989 8.65392e-05 1 
72 1 7.71401 2.49811 -14.1146 0.000108807 1 
73 1 10.2591 1.33812 -13.5085 0.000135662 1 
74 1 8.23354 1.48906 -11.4921 0.000351369 1 
75 1 10.7763 0.327108 -10.8881 0.000427148 1 
76 1 10.5566 3.15686 -11.3068 0.000503465 1 
77 1 13.1015 1.99231 -10.7097 0.000542797 1 
78 1 11.0702 2.15193 -8.69297 0.00216663 1 
79 1 13.6151 0.980072 -8.10525 0.00287801 1 
80 1 13.3992 3.81136 -8.50685 0.00141238 1 
81 1 15.9513 2.63541 -7.91555 0.00198479 1 
82 1 13.9046 2.79449 -5.91183 0.0137376 1 
83 1 16.478 1.61153 -5.31044 0.0103559 1 
84 1 16.2668 4.4449 -5.73799 0.0201243 1 
85 1 18.8236 3.28706 -5.09294 0.0204406 1 
86 1 16.7924 3.43188 -3.16057 0.0742335 1 
87 1 19.301 2.26286 -2.46869 0.210182 1 
88 1 19.2137 5.08466 -2.86543 0.310294 1 
89 1 21.6731 3.89783 -2.15002 4.98625 5 
93 1 2.84432 1.98882 -14.9088 7.21871e-05 1 
95 1 5.16798 3.6562 -14.723 7.46283e-05 1 
96 1 3.14415 3.80588 -12.7089 0.000199075 1 
97 1 5.68973 2.64804 -12.1005 0.000233778 1 
98 1 5.46834 5.47273 -12.518 0.000272176 1 
99 1 8.01303 4.31623 -11.9102 0.00039173 1 
100 1 5.98902 4.4704 -9.89653 0.00143916 1 
101 1 8.53025 3.31381 -9.29035 0.00197681 1 
102 1 8.31313 6.13437 -9.69268 0.000782191 1 
103 1 10.8541 4.97741 -9.09247 0.00129487 1 
104 1 8.82649 5.13878 -7.06039 0.00428752 1 
105 1 11.365 3.97942 -6.47473 0.00803564 1 
106 1 11.1615 6.79125 -6.86144 0.00391654 1 
107 1 13.708 5.63091 -6.29924 0.0114302 1 
108 1 11.6986 5.78494 -4.22589 0.0382246 1 
109 1 14.2164 4.57063 -3.74626 0.1726 1 
110 1 14.0314 7.44602 -4.07603 0.215075 1 
111 1 16.6528 6.2697 -3.60176 0.417523 1 
112 1 14.7136 6.28807 -1.68288 8.40049 5 
113 1 17.2074 5.29564 -1.07552 7.78139 5 
114 1 19.5701 6.95332 -0.311361 9.80268 5 
118 1 2.92272 6.62764 -13.1277 0.000192311 1 
120 1 3.44574 5.62654 -10.5019 0.00107892 1 
121 1 3.22684 8.44054 -10.9142 0.00074809 1 
122 1 5.77037 7.28762 -10.3014 0.000618549 1 
123 1 3.75147 7.4468 -8.27394 0.00569824 1 
124 1 6.29233 6.28822 -7.66666 0.00295711 1 
125 1 6.0724 9.09412 -8.07369 0.00425885 1 
126 1 8.61668 7.94544 -7.46114 0.00290733 1 
127 1 6.58868 8.08591 -5.42331 0.0366336 1 
128 1 9.15331 6.9483 -4.81733 0.00977669 1 
129 1 8.95263 9.74625 -5.2415 0.0205809 1 
130 1 11.4949 8.59236 -4.61903 0.0315576 1 
131 1 9.52355 8.76086 -2.57293 2.54186 5 
132 1 12.0605 7.5746 -1.95747 3.36484 5 
133 1 11.7833 10.3601 -2.25038 0.484114 1 
134 1 14.3735 9.1943 -1.58053 2.51006 5 
138 1 3.5334 10.2457 -8.68741 0.00453544 1 
140 1 4.05838 9.25863 -6.00342 0.0410066 1 
141 1 3.83762 12.0501 -6.47376 0.0126244 1 
142 1 6.37729 10.8999 -5.87626 0.0342597 1 
143 1 4.3549 11.087 -3.77042 0.389197 1 
144 1 6.95516 9.89947 -3.30391 0.2228 1 
145 1 6.63475 12.725 -3.6659 0.483225 1 
146 1 9.30543 11.5592 -2.98759 0.414994 1 
147 1 7.30286 11.7946 -1.20108 8.64408 5 
148 1 9.49131 13.5284 -0.722766 3.08742 5 
7984 1 60.4144 36.089 -2.1438 7.37861 5 
152 1 4.11529 13.8451 -4.19508 0.24079 1 
61161 3 52.4136 44.1009 0.759689 9.23837 5 
154 1 4.58302 12.847 -1.1059 8.21123 5 
155 1 4.34418 15.678 -2.00219 2.72312 5 
156 1 6.86884 14.5094 -1.38722 1.64906 5 
159 1 35.9797 0.816065 -1.91854 4.48369 5 
160 1 19.7038 0.528147 -14.1371 3.06038e-05 1 
161 1 22.5519 1.17721 -11.3297 0.000145593 1 
162 1 25.3998 1.82428 -8.52958 0.0027187 1 
163 1 27.9511 0.657425 -7.91302 0.00302731 1 
164 1 25.9164 0.810844 -5.93357 0.0366926 1 
165 1 28.2304 2.46799 -5.69601 0.034246 1 
166 1 30.7862 1.32035 -5.06235 0.0982484 1 
167 1 28.7349 1.44762 -3.09481 0.164022 1 
168 1 31.1763 0.190566 -2.46898 6.71512 5 
169 1 31.1109 3.195 -2.83564 4.6929 5 
170 1 33.5113 1.9585 -2.44425 2.09689 5 
180 1 17.1554 1.68998 -14.7425 3.66266e-05 1 
181 1 15.1298 1.83892 -12.7255 0.000135591 1 
182 1 17.6786 0.675035 -12.1209 0.00011636 1 
183 1 17.4559 3.50051 -12.5417 7.09103e-05 1 
184 1 20.0047 2.33792 -11.9358 6.87653e-05 1 
185 1 17.9805 2.48572 -9.92086 0.00031422 1 
186 1 20.5271 1.32464 -9.31065 0.000342634 1 
187 1 20.31 4.14634 -9.73164 0.000678581 1 
188 1 22.8546 2.99016 -9.12257 0.00372932 1 
189 1 20.8354 3.13754 -7.10229 0.00600517 1 
190 1 23.3699 1.99216 -6.50562 0.0412245 1 
191 1 23.1728 4.7867 -6.86901 0.0388176 1 
192 1 25.6973 3.62774 -6.30757 0.0345682 1 
193 1 23.6855 3.79213 -4.13527 0.522311 5 
194 1 26.1668 2.61432 -3.64208 0.564018 5 
195 1 25.9987 5.39714 -4.10999 0.229019 1 
196 1 28.5938 4.30742 -3.56536 0.106217 1 
197 1 26.54 4.3788 -1.49249 5.19974 5 
198 1 29.0639 3.29061 -1.01399 6.40495 5 
199 1 29.0727 6.17246 -1.47732 8.125 5 
200 1 32.9668 3.86678 -0.543289 10.4692 5 
217 1 10.0365 4.16394 -13.9292 0.000137018 1 
218 1 12.5823 3.00289 -13.3267 0.00014685 1 
219 1 12.3591 5.82656 -13.7444 0.000114619 1 
220 1 14.9065 4.66442 -13.1438 9.99141e-05 1 
221 1 12.8807 4.81867 -11.1208 0.000352339 1 
222 1 15.4296 3.65183 -10.5258 0.000344889 1 
223 1 15.207 6.47615 -10.938 0.000389474 1 
224 1 17.7596 5.31002 -10.3393 0.000330077 1 
225 1 15.7348 5.46399 -8.32672 0.00211323 1 
226 1 18.2923 4.29512 -7.72106 0.00287211 1 
227 1 18.0702 7.11652 -8.13199 0.0040069 1 
228 1 20.6282 5.94583 -7.51884 0.00476193 1 
229 1 18.6341 6.10039 -5.51553 0.0455335 1 
230 1 21.1762 4.93496 -4.86232 0.0313294 1 
231 1 20.938 7.73195 -5.31003 0.0618012 1 
232 1 23.4933 6.59466 -4.64549 0.0723277 1 
233 1 21.4493 6.7379 -2.61607 3.00443 5 
234 1 23.9781 5.6452 -1.82967 6.36085 5 
235 1 23.7856 8.43055 -2.49895 6.41037 5 
236 1 26.5349 7.15817 -2.1062 8.30584 5 
237 1 25.1277 7.94756 -0.105981 10.4835 5 
247 1 7.49102 5.32215 -14.5356 0.000102494 1 
248 1 7.26768 8.14235 -14.957 7.49987e-05 1 
249 1 9.81336 6.98561 -14.3484 0.000113156 1 
250 1 7.79147 7.13624 -12.3248 0.000239038 1 
251 1 10.3356 5.9796 -11.719 0.000334043 1 
252 1 10.1135 8.79684 -12.1357 0.000285874 1 
253 1 12.6585 7.6388 -11.5335 0.000312937 1 
254 1 10.6366 7.79244 -9.49873 0.000806457 1 
255 1 13.1818 6.63391 -8.90749 0.0013191 1 
256 1 12.9607 9.44791 -9.31637 0.00123103 1 
257 1 15.5106 8.2862 -8.72723 0.00255097 1 
258 1 13.4919 8.44546 -6.68259 0.0116994 1 
259 1 16.0487 7.27774 -6.12752 0.0345427 1 
260 1 15.8128 10.0835 -6.49074 0.0246291 1 
261 1 18.3765 8.90093 -5.88546 0.0608749 1 
262 1 16.3495 9.05038 -3.8334 0.236959 1 
263 1 18.9322 7.89665 -3.17724 0.481377 1 
264 1 18.7006 10.7254 -3.77355 0.10762 1 
265 1 21.2253 9.54481 -3.24511 3.80922 5 
266 1 19.3529 9.84428 -1.08968 8.62058 5 
267 1 22.4239 7.55016 -0.129934 6.04233 5 
268 1 22.255 10.3179 -0.908644 11.5652 5 
274 1 2.69991 9.44483 -13.5497 0.000146769 1 
275 1 5.24645 8.29081 -12.936 0.000169509 1 
276 1 5.02268 11.1066 -13.3619 0.000136556 1 
277 1 7.56885 9.95196 -12.7467 0.000174403 1 
278 1 5.54907 10.0988 -10.7216 0.000535567 1 
279 1 8.09322 8.94679 -10.1058 0.000524301 1 
280 1 7.87087 11.7582 -10.5353 0.000298249 1 
281 1 10.4156 10.6046 -9.91813 0.000779314 1 
282 1 8.40046 10.7523 -7.88631 0.00238107 1 
283 1 10.9475 9.59832 -7.27298 0.00266642 1 
284 1 10.7161 12.405 -7.68971 0.00732655 1 
285 1 13.2673 11.2425 -7.08034 0.0164812 1 
286 1 11.2665 11.3907 -5.02416 0.039445 1 
287 1 13.7988 10.2268 -4.37869 0.160163 1 
288 1 13.5573 13.0536 -4.90802 0.0230588 1 
289 1 16.1249 11.8965 -4.3227 0.0170113 1 
290 1 14.1241 12.0668 -2.28626 0.386223 1 
291 1 16.685 10.8481 -1.77141 3.38522 5 
292 1 16.4627 13.715 -2.12112 1.85143 5 
293 1 18.9872 12.6397 -1.74752 7.91876 5 
296 1 2.47446 12.2617 -13.9774 0.000126309 1 
298 1 3.00358 11.251 -11.3399 0.000665157 1 
299 1 2.77532 14.0671 -11.7773 0.000216388 1 
300 1 5.32416 12.9123 -11.1574 0.000183239 1 
301 1 3.30646 13.0536 -9.13614 0.00118199 1 
302 1 5.85169 11.9037 -8.51352 0.0010902 1 
303 1 5.62096 14.7164 -8.957 0.0011663 1 
304 1 8.16943 13.559 -8.32197 0.00261934 1 
305 1 6.14065 13.7098 -6.30629 0.015677 1 
306 1 8.6951 12.5497 -5.64982 0.0251014 1 
307 1 8.44828 15.3584 -6.12427 0.0119889 1 
308 1 10.9999 14.2187 -5.48834 0.0117129 1 
309 1 8.96872 14.3566 -3.44183 0.122306 1 
310 1 11.5469 13.203 -2.83183 0.110684 1 
311 1 11.2691 16.0673 -3.32214 0.211005 1 
312 1 13.8263 14.9311 -2.831 0.619121 1 
313 1 11.9209 14.9917 -0.758607 6.73978 5 
314 1 14.4978 14.1565 -0.3393 9.15097 5 
318 1 3.07271 15.8689 -9.58021 0.00197435 1 
320 1 3.60699 14.8451 -6.92602 0.0213416 1 
321 1 3.35366 17.6723 -7.40209 0.00488185 1 
322 1 5.90674 16.5177 -6.76301 0.0060696 1 
323 1 3.8762 16.6498 -4.76274 0.0451539 1 
324 1 6.39885 15.4966 -4.08273 0.0532386 1 
325 1 6.15768 18.3298 -4.6049 0.0106094 1 
326 1 8.72015 17.1863 -4.00123 0.0768329 1 
327 1 6.64108 17.3062 -2.0156 1.06889 5 
328 1 9.15915 16.2846 -1.39132 6.77409 5 
329 1 9.01023 19.044 -1.82323 6.21455 5 
330 1 11.4546 17.9197 -0.884673 6.08619 5 
334 1 3.60256 19.4778 -5.25139 0.0400714 1 
336 1 4.06824 18.4803 -2.62111 0.30342 1 
337 1 3.83017 21.3171 -3.19649 0.279344 1 
338 1 6.41476 20.1223 -2.46371 0.42394 5 
339 1 6.58954 21.9338 -0.314992 7.07743 5 
343 1 40.1954 0.557565 -5.74474 0.0449001 1 
344 1 42.9598 1.13266 -3.0689 5.4703 5 
345 1 45.9506 2.39653 -0.411937 6.01235 5 
348 1 29.4481 1.53124 -12.56 0.000143547 1 
349 1 31.9929 0.371564 -11.9516 0.000312602 1 
350 1 29.9725 0.511819 -9.92571 0.00103143 1 
351 1 32.2924 2.17828 -9.75791 0.00108079 1 
352 1 34.8341 1.02215 -9.15142 0.00190982 1 
353 1 32.8049 1.15576 -7.13041 0.0112635 1 
354 1 35.1452 2.84339 -6.97909 0.0317577 1 
355 1 37.6741 1.6978 -6.35081 0.040632 1 
356 1 35.6248 1.90231 -4.34689 0.931979 5 
357 1 38.1448 0.720709 -3.74567 0.244877 1 
358 1 37.9531 3.51508 -4.00776 0.605693 5 
359 1 40.5071 2.38947 -3.44688 0.52094 1 
360 1 40.7578 1.2819 -0.68506 9.59499 5 
361 1 41.2685 4.30022 -1.22861 9.37558 5 
362 1 43.3304 2.04672 -0.554157 8.84193 5 
375 1 22.0283 2.19129 -13.9548 2.16459e-05 1 
376 1 24.5764 1.02996 -13.3496 3.68147e-05 1 
377 1 24.3525 3.85343 -13.7734 2.28766e-05 1 
378 1 26.9007 2.69235 -13.1678 3.51421e-05 1 
379 1 24.8776 2.83868 -11.1472 0.000248784 1 
380 1 27.4263 1.67493 -10.5408 0.000257034 1 
381 1 27.2027 4.49866 -10.9655 0.000218253 1 
382 1 29.7495 3.33751 -10.3603 0.000564859 1 
383 1 27.7268 3.48096 -8.33611 0.00245188 1 
384 1 30.2683 2.31815 -7.72337 0.00678423 1 
385 1 30.0581 5.14782 -8.17095 0.00209883 1 
386 1 32.6037 3.99368 -7.58204 0.00884965 1 
387 1 30.592 4.13435 -5.5528 0.0329801 1 
388 1 33.1129 2.98646 -4.99487 0.132213 1 
389 1 32.9416 5.82252 -5.41338 0.0869555 1 
390 1 35.5159 4.65571 -4.71296 0.709037 5 
391 1 33.5225 4.84231 -2.89606 6.82872 5 
392 1 35.7813 3.79882 -1.36171 13.4302 5 
393 1 35.865 6.48066 -2.49491 2.65662 5 
394 1 38.4144 5.28783 -1.83289 4.62724 5 
419 1 19.4799 3.35253 -14.5603 2.02193e-05 1 
420 1 19.2551 6.17554 -14.983 2.1654e-05 1 
421 1 21.8041 5.01427 -14.3783 3.33703e-05 1 
422 1 19.7818 5.16075 -12.3573 9.00351e-05 1 
423 1 22.3304 3.99969 -11.751 0.000298602 1 
424 1 22.107 6.81919 -12.1729 0.000282172 1 
425 1 24.655 5.65931 -11.5693 0.000260023 1 
426 1 22.6384 5.80048 -9.53598 0.00347659 1 
427 1 25.1803 4.64558 -8.93642 0.00308462 1 
428 1 24.9617 7.46218 -9.36834 0.000727011 1 
429 1 27.5094 6.30554 -8.76853 0.000798695 1 
430 1 25.4929 6.44984 -6.72923 0.00800687 1 
431 1 28.0363 5.29016 -6.15345 0.0184024 1 
432 1 27.826 8.11972 -6.57961 0.0460199 1 
433 1 30.3983 6.96043 -5.98204 0.0339843 1 
434 1 28.4243 7.11992 -4.03348 0.460208 1 
435 1 30.9937 5.97492 -3.36931 2.1726 5 
436 1 30.6869 8.76832 -3.70602 0.178544 1 
437 1 33.2859 7.60239 -3.09325 0.2313 1 
438 1 31.3137 7.86007 -1.07005 5.20335 5 
439 1 33.7571 9.28577 -0.908201 8.46803 5 
463 1 14.6823 7.48651 -13.562 9.9281e-05 1 
464 1 17.2316 6.32388 -12.961 7.86832e-05 1 
465 1 17.006 9.1448 -13.3816 9.05145e-05 1 
466 1 19.5564 7.98191 -12.7789 9.45614e-05 1 
467 1 17.5337 8.13102 -10.7543 0.000419303 1 
468 1 20.0877 6.96495 -10.1509 0.000524962 1 
469 1 19.8572 9.78541 -10.5755 0.000535573 1 
470 1 22.4112 8.62053 -9.97124 0.000679144 1 
471 1 20.3917 8.76417 -7.94518 0.00501417 1 
472 1 22.9499 7.59309 -7.33422 0.0106378 1 
473 1 22.7199 10.4252 -7.78553 0.00476295 1 
474 1 25.2783 9.26534 -7.17836 0.01147 1 
475 1 23.2784 9.39848 -5.18765 0.0719511 1 
476 1 25.8152 8.26562 -4.54465 0.25533 1 
477 1 25.6047 11.0451 -4.9345 0.110686 1 
478 1 28.1104 9.89137 -4.2368 0.303546 1 
479 1 26.1077 10.0437 -2.06 5.74695 5 
480 1 28.6844 8.9315 -1.46275 2.36861 5 
481 1 28.4649 11.6892 -2.11952 0.52871 5 
482 1 31.0311 10.5974 -1.62065 6.20077 5 
499 1 9.58974 9.80442 -14.7714 9.27413e-05 1 
500 1 12.1354 8.6467 -14.1643 0.000110382 1 
501 1 11.9112 11.4653 -14.5896 9.55665e-05 1 
502 1 14.4575 10.3061 -13.9842 9.76418e-05 1 
503 1 12.435 10.4552 -11.9534 0.000316183 1 
504 1 14.9823 9.29508 -11.353 0.000318536 1 
505 1 14.7556 12.112 -11.7772 0.000487775 1 
506 1 17.3052 10.9491 -11.1754 0.000628409 1 
507 1 15.2821 11.0983 -9.13881 0.00270921 1 
508 1 17.8352 9.92929 -8.53891 0.00585821 1 
509 1 17.6022 12.7549 -8.98268 0.00102562 1 
510 1 20.1595 11.5905 -8.38512 0.0017418 1 
511 1 18.1367 11.7354 -6.36777 0.0124865 1 
512 1 20.7067 10.5761 -5.78049 0.0290498 1 
513 1 20.4649 13.39 -6.18366 0.0160416 1 
514 1 23.0237 12.2282 -5.57411 0.0253222 1 
515 1 21.0395 12.3755 -3.54035 1.70704 5 
516 1 23.6186 11.2294 -3.00173 5.42261 5 
517 1 23.289 14.0135 -3.26333 0.465461 1 
518 1 25.8517 12.8584 -2.75516 0.553444 1 
519 1 28.971 13.3928 -0.0768739 9.8013 5 
532 1 7.3445 12.7682 -13.1773 0.000118924 1 
533 1 9.89009 11.6122 -12.5618 0.000223894 1 
534 1 9.66469 14.4297 -12.9956 0.000272334 1 
535 1 12.2096 13.2715 -12.3827 0.000436112 1 
536 1 10.1891 13.4162 -10.3505 0.0013032 1 
537 1 12.7336 12.258 -9.73722 0.00253264 1 
538 1 12.5037 15.0788 -10.1842 0.000438869 1 
539 1 15.0503 13.9186 -9.57923 0.000403146 1 
540 1 13.0237 14.065 -7.54378 0.00296915 1 
541 1 15.5776 12.9058 -6.94623 0.00163538 1 
542 1 15.3384 15.7315 -7.3905 0.00278646 1 
543 1 17.8933 14.5729 -6.80079 0.0102526 1 
544 1 15.8708 14.7264 -4.7628 0.0436832 1 
545 1 18.4197 13.5871 -4.22842 0.161603 1 
546 1 18.1534 16.3915 -4.57003 0.0550858 1 
547 1 20.7177 15.1987 -4.00511 0.0999515 1 
548 1 18.6593 15.4205 -1.8915 0.394625 1 
549 1 21.2103 14.3122 -1.33043 5.07625 5 
550 1 20.9258 17.0421 -1.93183 5.4907 5 
551 1 23.5568 15.7615 -1.08343 4.3888 5 
557 1 4.79674 13.9244 -13.7945 8.27626e-05 1 
558 1 4.56941 16.7457 -14.2289 8.74548e-05 1 
559 1 7.11817 15.5875 -13.6126 0.000145723 1 
560 1 5.09507 15.7306 -11.5967 0.000258798 1 
561 1 7.64364 14.573 -10.9734 0.000537524 1 
562 1 7.41422 17.3956 -11.4179 0.00035143 1 
563 1 9.95991 16.2372 -10.7976 0.000465235 1 
564 1 7.9351 16.3784 -8.77883 0.00147875 1 
565 1 10.4789 15.2224 -8.15159 0.00224161 1 
566 1 10.248 18.0509 -8.60945 0.000948093 1 
567 1 12.7902 16.8948 -7.99677 0.00176781 1 
568 1 10.7596 17.0441 -5.97476 0.0118663 1 
569 1 13.3003 15.8987 -5.37865 0.0454663 1 
570 1 13.0663 18.7113 -5.78708 0.0178046 1 
571 1 15.5949 17.5455 -5.18587 0.0287613 1 
572 1 13.5281 17.7245 -3.07406 0.220661 1 
573 1 16.0645 16.5585 -2.52337 0.297291 1 
574 1 15.8514 19.3704 -3.06427 0.0908306 1 
575 1 18.4117 18.2168 -2.44032 0.0757537 1 
576 1 16.3218 18.4912 -0.454503 4.12186 5 
577 1 18.6877 20 -0.340312 9.89919 5 
582 1 4.86565 18.5548 -12.0367 0.000294662 1 
584 1 5.38715 17.5368 -9.40668 0.00111763 1 
585 1 5.15665 20.3682 -9.85365 0.00108289 1 
586 1 7.70413 19.2087 -9.23302 0.000841922 1 
587 1 5.66564 19.3481 -7.23574 0.00407616 1 
588 1 8.21191 18.1942 -6.60603 0.0040363 1 
589 1 7.99158 21.0276 -7.0516 0.00283334 1 
590 1 10.5311 19.8639 -6.41425 0.00611385 1 
591 1 8.48275 20.0116 -4.42837 0.0157157 1 
592 1 11.037 18.862 -3.74666 0.115738 1 
593 1 10.792 21.6812 -4.25123 0.0752801 1 
594 1 13.3115 20.5291 -3.61227 0.063054 1 
595 1 11.1797 20.7513 -1.54909 1.42302 5 
596 1 13.7455 19.5631 -0.922439 1.15111 5 
597 1 13.509 22.3189 -1.55573 1.692 5 
598 1 16.0847 21.2571 -1.0865 6.44667 5 
605 1 5.44671 22.1904 -7.68037 0.00490535 1 
607 1 5.94288 21.1596 -5.0891 0.0270476 1 
608 1 5.72495 24.0294 -5.49953 0.0176959 1 
609 1 8.27884 22.853 -4.85956 0.0503919 1 
610 1 6.20422 22.9628 -2.97574 0.166061 1 
611 1 8.68291 21.8213 -2.20582 0.261078 1 
612 1 8.49476 24.7153 -2.697 0.188707 1 
613 1 10.9394 23.5461 -2.22108 6.17399 5 
61159 3 60.0863 40.5149 -0.480256 9.77838 5 
621 1 6.02883 25.8708 -3.31527 6.99997 5 
623 1 6.36228 24.7642 -0.830859 7.24516 5 
624 1 8.58845 26.4864 -0.479478 8.84601 5 
629 1 44.267 0.242116 -9.831 0.000655888 1 
630 1 47.1068 0.90935 -7.04288 0.00889659 1 
631 1 49.9305 1.60144 -4.29209 0.0969519 1 
632 1 52.4518 0.459448 -3.65587 0.299873 1 
633 1 50.3202 0.607586 -1.77821 6.29485 5 
634 1 52.6595 2.25061 -1.16018 8.67468 5 
637 1 34.0144 0.232491 -13.9791 5.73307e-05 1 
638 1 36.3369 1.89928 -13.8069 5.73785e-05 1 
639 1 38.8809 0.74299 -13.2059 0.000107153 1 
640 1 36.8579 0.883451 -11.1764 0.000302403 1 
641 1 39.1819 2.55271 -11.0087 0.000544255 1 
642 1 41.7214 1.39887 -10.4176 0.000851262 1 
643 1 39.696 1.5468 -8.37435 0.00605419 1 
644 1 42.2282 0.390258 -7.80913 0.00973652 1 
645 1 42.0184 3.21068 -8.21611 0.0089211 1 
646 1 44.5644 2.04944 -7.63753 0.00874526 1 
647 1 42.5281 2.21196 -5.6061 0.0597431 1 
648 1 45.0623 1.02583 -5.00488 0.177696 1 
649 1 44.8892 3.88156 -5.50194 0.0671092 1 
650 1 47.4089 2.7399 -4.86365 0.0499877 1 
651 1 45.3287 2.86009 -2.95268 3.7329 5 
652 1 47.8713 1.75613 -2.25863 0.688376 1 
653 1 47.7107 4.52664 -2.57095 5.44264 5 
654 1 50.3037 3.40794 -2.02695 6.69347 5 
655 1 48.3967 3.52313 -0.01001 9.12807 5 
671 1 31.4692 1.39012 -14.5839 5.13686e-05 1 
673 1 33.7917 3.0566 -14.4098 3.29163e-05 1 
674 1 31.7704 3.19714 -12.3858 0.00011929 1 
675 1 34.3152 2.03948 -11.7817 0.000193943 1 
676 1 34.0954 4.86558 -12.2124 0.00024272 1 
677 1 36.6404 3.70835 -11.61 0.000320795 1 
678 1 34.6226 3.85131 -9.59093 0.00261567 1 
679 1 37.1638 2.69564 -8.98317 0.00296139 1 
680 1 36.9518 5.51503 -9.40497 0.00132102 1 
681 1 39.4909 4.35932 -8.80249 0.0060971 1 
682 1 37.4875 4.50172 -6.76226 0.0284437 1 
683 1 39.9868 3.36052 -6.12233 0.0773062 1 
684 1 39.8162 6.15788 -6.6098 0.021467 1 
685 1 42.3527 5.02176 -6.04384 0.0220954 1 
686 1 40.3959 5.16857 -3.94392 0.201862 1 
687 1 42.8875 4.01876 -3.43832 3.5479 5 
688 1 42.7601 6.86201 -3.89763 2.39303 5 
689 1 45.2657 5.73365 -3.29341 5.62683 5 
690 1 44.2336 4.69161 -1.08914 9.88773 5 
723 1 26.6765 5.51566 -13.5939 2.69108e-05 1 
724 1 29.2242 4.35597 -12.9893 5.58863e-05 1 
725 1 29.0007 7.18022 -13.417 3.24976e-05 1 
726 1 31.5486 6.02284 -12.8142 9.73195e-05 1 
727 1 29.529 6.16397 -10.7918 0.00020979 1 
728 1 32.0763 5.0073 -10.1925 0.000872939 1 
729 1 31.8564 7.83179 -10.6129 0.000640603 1 
730 1 34.4067 6.67252 -10.0082 0.000873071 1 
731 1 32.395 6.82165 -7.99732 0.0076117 1 
732 1 34.9525 5.65268 -7.37464 0.0136532 1 
733 1 34.7176 8.47618 -7.80114 0.00270763 1 
734 1 37.2736 7.31466 -7.20068 0.00579 1 
735 1 35.2746 7.45238 -5.17351 0.0362549 1 
736 1 37.8391 6.29084 -4.53705 0.055878 1 
737 1 37.6169 9.108 -5.02295 0.0704075 1 
738 1 40.1621 7.98924 -4.50364 0.161031 1 
739 1 38.2505 8.04521 -2.35221 5.28879 5 
740 1 40.8306 7.09418 -1.9694 8.88567 5 
741 1 40.6516 9.83544 -2.41413 6.96841 5 
742 1 43.1213 8.7196 -1.61637 7.72419 5 
775 1 21.5789 7.83614 -14.8025 3.57227e-05 1 
776 1 24.1279 6.67566 -14.1983 2.93637e-05 1 
777 1 23.9024 9.49799 -14.6252 1.54658e-05 1 
778 1 26.4518 8.33859 -14.0209 1.35543e-05 1 
779 1 24.4306 8.48049 -11.9975 6.55128e-05 1 
780 1 26.9804 7.3218 -11.3941 7.03315e-05 1 
781 1 26.7555 10.1438 -11.8205 0.000171726 1 
782 1 29.3062 8.9868 -11.2156 0.000243637 1 
783 1 27.2891 9.12816 -9.19482 0.00228244 1 
784 1 29.8414 7.9727 -8.59185 0.00342877 1 
785 1 29.6122 10.7876 -9.00479 0.00172684 1 
786 1 32.1627 9.63556 -8.3952 0.00290379 1 
787 1 30.1392 9.76866 -6.35545 0.0271391 1 
788 1 32.7089 8.62436 -5.75075 0.0294694 1 
789 1 32.4761 11.4349 -6.19582 0.00732513 1 
790 1 35.0346 10.2896 -5.6194 0.0390318 1 
791 1 33.053 10.4221 -3.56447 0.100942 1 
792 1 35.5818 9.266 -3.08249 5.66617 5 
793 1 35.3243 12.0753 -3.32433 2.01659 5 
794 1 37.8912 10.8363 -2.75803 3.86006 5 
795 1 39.1771 9.79403 -0.277999 10.2764 5 
824 1 19.3292 10.8032 -13.2046 9.56737e-05 1 
825 1 21.88 9.64094 -12.601 8.27359e-05 1 
826 1 21.6529 12.4641 -13.0303 2.69621e-05 1 
827 1 24.2041 11.3027 -12.4259 7.22084e-05 1 
828 1 22.1818 11.4453 -10.4046 0.000289402 1 
829 1 24.7363 10.284 -9.80002 0.000958977 1 
830 1 24.5059 13.1028 -10.2251 0.000847669 1 
831 1 27.0602 11.9418 -9.61266 0.00197773 1 
832 1 25.0434 12.0744 -7.58761 0.00734177 1 
833 1 27.6016 10.918 -6.9612 0.0223755 1 
834 1 27.3586 13.7353 -7.42493 0.00374866 1 
835 1 29.9146 12.5859 -6.80964 0.00277341 1 
836 1 27.8922 12.7026 -4.77248 0.0277565 1 
837 1 30.4598 11.5725 -4.19354 0.0404858 1 
838 1 30.2276 14.3888 -4.62904 0.0224461 1 
839 1 32.7908 13.2441 -4.00316 0.0717399 1 
840 1 30.8141 13.3935 -2.01014 7.0861 5 
841 1 33.331 12.2071 -1.3323 8.53761 5 
842 1 32.9768 15.0188 -1.66517 4.51975 5 
843 1 35.5347 13.8244 -0.843195 6.30908 5 
865 1 14.2324 13.1258 -14.4123 0.000105073 1 
866 1 16.7798 11.9651 -13.8075 0.000118101 1 
867 1 16.5542 14.7874 -14.2389 4.11928e-05 1 
868 1 19.1028 13.6259 -13.6344 3.44755e-05 1 
869 1 17.0769 13.7715 -11.6094 0.000140746 1 
870 1 19.6283 12.6085 -11.0075 0.000133801 1 
871 1 19.4001 15.4323 -11.4383 0.000134197 1 
872 1 21.9522 14.2685 -10.8323 0.000126349 1 
873 1 19.9261 14.4125 -8.81232 0.00111151 1 
874 1 22.4832 13.2476 -8.20343 0.00137232 1 
875 1 22.2463 16.0692 -8.63404 0.00327501 1 
876 1 24.799 14.9012 -8.03881 0.00412608 1 
877 1 22.7748 15.0355 -5.98503 0.0409699 1 
878 1 25.3236 13.8643 -5.40995 0.0424601 1 
879 1 25.0829 16.7122 -5.88683 0.0200114 1 
880 1 27.6524 15.536 -5.28151 0.0257847 1 
881 1 25.5711 15.6948 -3.33301 0.327428 1 
882 1 28.2264 14.5208 -2.68867 0.197376 1 
883 1 27.9595 17.3429 -3.15613 0.174081 1 
884 1 30.5056 16.1985 -2.37364 0.280343 1 
885 1 28.4951 16.3986 -0.530492 7.06461 5 
904 1 14.0074 15.9481 -14.8451 4.38343e-05 1 
905 1 11.9835 16.0933 -12.8211 0.000133424 1 
906 1 14.5289 14.9332 -12.213 0.00012459 1 
907 1 14.3034 17.758 -12.6491 8.84894e-05 1 
908 1 16.8502 16.5958 -12.0436 8.51624e-05 1 
909 1 14.8212 16.7433 -10.0199 0.000234529 1 
910 1 17.3704 15.5808 -9.41733 0.000565466 1 
911 1 17.1417 18.4055 -9.85215 0.000587505 1 
912 1 19.6918 17.2397 -9.24719 0.000831986 1 
913 1 17.6504 17.3905 -7.22118 0.00542438 1 
914 1 20.2068 16.2174 -6.62528 0.00902526 1 
915 1 19.9771 19.054 -7.07158 0.00360765 1 
916 1 22.5308 17.8769 -6.4624 0.00824591 1 
917 1 20.4753 18.0402 -4.48172 0.0413026 1 
918 1 23.0435 16.8391 -3.84291 0.113629 1 
919 1 22.8008 19.6806 -4.27889 0.0439046 1 
920 1 25.3257 18.5388 -3.72014 0.158334 1 
921 1 23.2512 18.5715 -1.63198 3.17736 5 
922 1 25.5098 20.2871 -1.35905 1.18033 1 
923 1 28.0952 19.1788 -0.896628 3.99091 5 
936 1 6.89138 18.4113 -14.0491 0.000110355 1 
937 1 9.43831 17.2524 -13.4341 0.000135511 1 
938 1 9.21305 20.0786 -13.8696 0.000104414 1 
939 1 11.7584 18.919 -13.2578 9.7821e-05 1 
940 1 9.733 19.0644 -11.2415 0.000269578 1 
941 1 12.2765 17.9053 -10.6275 0.000225157 1 
942 1 12.0527 20.7336 -11.0633 0.000295826 1 
943 1 14.5954 19.5711 -10.4566 0.000344648 1 
944 1 12.5639 19.7208 -8.4326 0.00143465 1 
945 1 15.1043 18.5563 -7.82922 0.00256817 1 
946 1 14.8822 21.3915 -8.27268 0.0017312 1 
947 1 17.4267 20.2201 -7.67626 0.00280254 1 
948 1 15.3724 20.3791 -5.66363 0.0117971 1 
949 1 17.9219 19.2079 -5.06549 0.0104802 1 
950 1 17.7184 22.0405 -5.52104 0.0183829 1 
951 1 20.2727 20.863 -4.8818 0.01378 1 
952 1 18.2127 21.0438 -2.9451 0.089045 1 
953 1 20.7334 19.8365 -2.25393 6.30501 5 
954 1 20.5638 22.6512 -2.67426 0.0907038 1 
955 1 23.0232 21.3615 -2.02377 0.370677 1 
961 1 4.34262 19.5703 -14.6622 7.56674e-05 1 
963 1 6.66591 21.2378 -14.4818 8.9212e-05 1 
964 1 4.6392 21.3837 -12.4711 0.00024898 1 
965 1 7.18732 20.2238 -11.8582 0.00029775 1 
966 1 6.96374 23.0537 -12.2881 0.000232424 1 
967 1 9.50957 21.894 -11.6755 0.000266727 1 
968 1 7.48159 22.0412 -9.6707 0.000772242 1 
969 1 10.0245 20.8799 -9.05048 0.000873738 1 
970 1 9.80361 23.7161 -9.48222 0.000814688 1 
971 1 12.3434 22.5552 -8.87325 0.00120461 1 
972 1 10.3087 22.7048 -6.86937 0.00463758 1 
973 1 12.8426 21.5476 -6.25138 0.00637027 1 
974 1 12.6328 24.3896 -6.68417 0.0108158 1 
975 1 15.167 23.2293 -6.09652 0.0156414 1 
976 1 13.1102 23.4043 -4.09086 0.135163 1 
977 1 15.6458 22.2436 -3.55352 0.129369 1 
978 1 15.43 25.0713 -3.85651 0.134422 1 
979 1 18.0335 23.8363 -3.34737 0.0822748 1 
980 1 16.0112 24.0863 -1.35506 4.57515 5 
981 1 18.4813 22.8642 -0.668141 7.92568 5 
982 1 18.3942 25.6123 -1.16119 6.53811 5 
983 1 20.815 24.4334 -0.566396 1.96367 5 
987 1 4.41656 24.2124 -12.8969 0.000214625 1 
989 1 4.93508 23.2033 -10.2829 0.000878128 1 
990 1 4.71686 26.0335 -10.6972 0.00065324 1 
991 1 7.26112 24.8745 -10.092 0.000498135 1 
992 1 5.23216 25.0324 -8.0886 0.00226096 1 
993 1 7.77161 23.8636 -7.48033 0.00219452 1 
994 1 7.56066 26.7025 -7.89149 0.00441657 1 
995 1 10.098 25.5504 -7.28658 0.0126189 1 
996 1 8.06159 25.7004 -5.30264 0.0296825 1 
997 1 10.5796 24.5668 -4.71283 0.121066 1 
998 1 10.3954 27.3702 -5.01724 0.0366355 1 
999 1 12.9231 26.2189 -4.44051 0.0378576 1 
1000 1 10.8523 26.3629 -2.37108 7.42461 5 
1001 1 13.2865 25.1892 -1.74804 6.59973 5 
1002 1 13.2521 27.993 -2.19941 5.13958 5 
1003 1 15.8271 26.864 -1.51982 5.14321 5 
1009 1 5.02277 27.8606 -8.48511 0.0055196 1 
1011 1 5.53844 26.8744 -5.87982 0.0308908 1 
1012 1 5.34967 29.6749 -6.2221 0.0305693 1 
1013 1 7.86497 28.5243 -5.65732 0.0339029 1 
1014 1 5.85881 28.6789 -3.5296 1.41684 5 
1015 1 8.34552 27.5268 -3.05081 7.07099 5 
1016 1 8.13941 30.2813 -3.34306 0.367751 1 
1017 1 10.7477 29.1751 -2.78437 0.116862 1 
1018 1 11.1925 30.9188 -0.662017 9.2641 5 
1026 1 5.65596 31.4886 -3.88678 0.213833 1 
1028 1 6.15229 30.4459 -0.93512 7.48076 5 
1029 1 5.90518 33.2718 -1.64587 6.07358 5 
1030 1 8.60346 32.0612 -1.34683 7.69869 5 
1037 1 51.1771 0.612766 -11.0649 0.000269117 1 
1038 1 54.0145 1.2794 -8.28351 0.00472329 1 
1051 1 45.78 1.11168 -14.4665 7.30147e-05 1 
1052 1 43.7511 1.25488 -12.4454 0.000165696 1 
1053 1 46.0801 2.92311 -12.2749 0.000231492 1 
1054 1 48.6296 1.7682 -11.6718 0.000151146 1 
1055 1 46.5984 1.91254 -9.65986 0.00101104 1 
1056 1 49.1459 0.759731 -9.05268 0.00116554 1 
1057 1 48.934 3.58473 -9.47989 0.00119048 1 
1058 1 51.4747 2.43458 -8.87378 0.00180668 1 
1059 1 49.4448 2.58709 -6.86558 0.00912199 1 
1060 1 51.9777 1.43526 -6.26653 0.0158941 1 
1061 1 51.7788 4.25691 -6.65687 0.00634137 1 
1062 1 54.3104 3.11915 -6.09321 0.0199383 1 
1063 1 52.2939 3.27354 -4.02253 0.124632 1 
1065 1 54.6437 4.96286 -3.87465 0.126482 1 
1090 1 38.6604 3.5668 -13.6362 7.23852e-05 1 
1091 1 41.2048 2.41078 -13.0398 0.0001082 1 
1092 1 40.9849 5.2345 -13.467 0.000103462 1 
1093 1 43.532 4.07856 -12.8721 0.000165354 1 
1094 1 41.5077 4.22032 -10.8447 0.000726216 1 
1095 1 44.0506 3.06564 -10.2531 0.00101863 1 
1096 1 43.8391 5.89045 -10.683 0.000991129 1 
1097 1 46.3877 4.73647 -10.0864 0.00113139 1 
1098 1 44.365 4.88215 -8.07733 0.00713876 1 
1099 1 46.9113 3.72982 -7.47835 0.00738722 1 
1100 1 46.7108 6.5475 -7.88693 0.00347834 1 
1101 1 49.2512 5.39848 -7.26921 0.00348931 1 
1102 1 47.2482 5.53754 -5.26283 0.0337224 1 