ITEM: TIMESTEP
0
ITEM: NUMBER OF ATOMS
3066
ITEM: BOX BOUNDS xy xz yz pp pp ss
-1.7289753106999999e+01 3.8421673570999999e+01 -1.7289753106999999e+01
0.0000000000000000e+00 4.4600596267999997e+01 0.0000000000000000e+00
-1.1047664008039325e+02 1.1961643996560647e+02 0.0000000000000000e+00
ITEM: ATOMS id type x y z c_csym c_cna 
1 1 35.7381 1.09435 -1.73134 8.27956 5 
2 1 -0.816095 2.98052 -1.34285 6.38521 5 
3 1 38.0474 0.812119 -5.93864 0.0535235 1 
4 1 -1.21523 3.52632 -6.34082 0.0361918 1 
5 1 0.0530291 4.29649 -3.84813 0.162204 1 
6 1 -0.783219 7.00197 -4.26535 0.0504787 1 
7 1 -0.384608 10.5489 -1.9053 7.59716 5 
8 1 -0.139989 13.9614 -0.309521 11.162 5 
9 1 35.254 1.35226 -6.34347 0.0300208 1 
10 1 36.5513 2.23899 -3.98854 0.457638 1 
11 1 33.7985 2.74518 -4.34996 0.196897 1 
12 1 35.706 4.89585 -4.35359 0.109012 1 
13 1 34.9104 3.66634 -1.85666 5.99063 5 
14 1 -1.53147 5.62883 -1.86431 4.92962 5 
15 1 34.1553 6.17802 -2.40556 4.63263 5 
16 1 -2.21604 8.36222 -2.27799 7.07038 2 
17 1 31.8427 0.517866 -4.29896 0.250872 1 
18 1 33.0449 1.50348 -2.06768 6.82531 5 
19 1 30.373 1.84389 -2.24915 2.71759 5 
20 1 32.1878 4.13832 -2.23509 6.27511 5 
21 1 29.3951 3.37438 -0.356273 12.4418 5 
22 1 -0.374879 2.72806 -13.1846 0.000489257 1 
23 1 0.0592447 6.21224 -11.1404 0.00138081 1 
24 1 36.1195 0.598132 -13.1884 0.00051538 1 
25 1 37.41 1.3769 -10.7582 0.00261659 1 
26 1 34.6219 1.94536 -11.1658 0.0012975 1 
27 1 36.555 4.08073 -11.165 0.00155975 1 
28 1 35.9127 2.72356 -8.75211 0.00530343 1 
29 1 -0.57466 4.86633 -8.72706 0.00546384 1 
30 1 35.0624 5.43468 -9.15555 0.00480482 1 
31 1 -1.42854 7.57579 -9.11489 0.0054094 1 
32 1 -2.06395 6.23353 -6.72992 0.0137409 1 
33 1 -0.146349 8.36745 -6.62969 0.023367 1 
34 1 -2.92017 8.95021 -7.08157 0.0333667 1 
35 1 -0.998533 11.0502 -7.05686 0.0125488 1 
36 1 -1.65551 9.76132 -4.5659 0.216319 1 
37 1 -2.50316 12.3971 -5.07658 0.19675 1 
38 1 -0.591293 14.5653 -4.97818 0.0525115 1 
39 1 -1.2425 13.1697 -2.67784 6.70792 5 
40 1 -2.09093 15.9756 -2.9141 1.23928 5 
41 1 -0.185708 18.194 -2.13152 13.5895 5 
42 1 33.9698 0.580507 -8.73651 0.0026386 1 
43 1 31.1879 1.15761 -9.10363 0.00380009 1 
44 1 33.1213 3.29264 -9.14725 0.00299155 1 
45 1 32.4729 1.92794 -6.714 0.0123534 1 
46 1 34.4177 4.07599 -6.7599 0.0136321 1 
47 1 31.614 4.63851 -7.12639 0.0137073 1 
48 1 33.5702 6.78922 -7.15907 0.0208825 1 
49 1 32.9194 5.41245 -4.78817 0.125138 1 
50 1 34.8699 7.58658 -4.74398 0.0600068 1 
51 1 32.0894 8.13056 -5.1722 0.120627 1 
52 1 33.9944 10.3357 -5.01952 0.312226 1 
53 1 33.4302 8.9083 -2.76626 7.13178 2 
54 1 -3.17437 11.1472 -2.36782 7.95672 5 
55 1 32.3993 11.7191 -2.73428 8.05123 5 
56 1 -4.06875 13.7258 -3.19877 6.22507 5 
57 1 -2.94302 14.3294 -0.83985 7.29121 5 
58 1 -5.74125 14.8959 -1.32136 7.44222 5 
59 1 -3.9946 17.0337 -0.831828 2.62187 5 
60 1 27.7654 0.407871 -6.99785 0.0246417 1 
61 1 29.6973 2.50934 -7.06097 0.00586719 1 
62 1 29.0545 1.14775 -4.59808 0.0709945 1 
63 1 31.0033 3.26461 -4.65292 0.0869074 1 
64 1 28.2084 3.84895 -5.01459 0.0539392 1 
65 1 30.0916 5.99618 -5.11904 0.171629 1 
66 1 29.4862 4.69143 -2.66953 0.846652 5 
67 1 31.419 6.66183 -2.85463 6.47055 5 
68 1 28.6498 7.37815 -2.85474 3.44765 5 
69 1 30.6208 9.38646 -3.15096 8.20546 5 
70 1 30.2706 10.6936 -0.819535 9.28761 5 
71 1 27.7521 12.0305 -1.16319 8.95488 5 
72 1 26.2703 1.79772 -4.9222 0.602098 5 
73 1 25.6509 0.533362 -2.49259 1.46169 5 
74 1 27.5781 2.53886 -2.48124 6.3271 5 
75 1 24.7884 3.32715 -2.1315 13.5895 5 
76 1 26.761 5.18492 -2.94382 5.75022 5 
77 1 28.1609 5.87913 -0.442415 6.20182 5 
78 1 25.3144 6.26275 -0.91933 7.68601 5 
79 1 22.8832 1.10872 -2.9141 1.23928 5 
80 1 20.9795 2.16689 -0.831837 2.62204 5 
81 1 19.2328 0.0290531 -1.32134 7.44218 5 
88 1 -1.22831 5.4321 -13.5891 0.000462186 1 
89 1 -2.08243 8.13497 -13.9936 0.000331441 1 
90 1 -0.162066 10.2593 -13.9823 0.000238516 1 
91 1 -0.795521 8.91353 -11.544 0.000771594 1 
92 1 -1.6516 11.6143 -11.9516 0.000566125 1 
93 1 -0.368217 12.3927 -9.4891 0.00175409 1 
94 1 -1.22863 15.0939 -9.89988 0.00181534 1 
95 1 0.0430215 15.8712 -7.42981 0.0139371 1 
96 1 -0.80596 18.5636 -7.84797 0.0183543 1 
97 1 -0.385005 22.0405 -5.7379 0.0330277 1 
98 1 0.0238522 25.4598 -3.63305 2.79872 5 
101 1 33.3378 1.17369 -13.5876 0.000356432 1 
102 1 35.2662 3.30256 -13.5953 0.000430897 1 
103 1 32.4851 3.87908 -13.995 0.000290176 1 
104 1 34.4132 6.00743 -13.9995 0.000336387 1 
105 1 33.7697 4.65297 -11.5716 0.00119229 1 
106 1 35.7025 6.78677 -11.5648 0.00147381 1 
107 1 32.9179 7.35904 -11.9715 0.000853074 1 
108 1 -3.57404 9.48823 -11.9678 0.00081967 1 
109 1 34.2125 8.1434 -9.54391 0.00596803 1 
110 1 -2.28441 10.2698 -9.52021 0.00190599 1 
111 1 33.3532 10.8385 -9.9497 0.00271012 1 
112 1 -3.14148 12.9701 -9.92891 0.00157585 1 
113 1 -3.78023 11.6217 -7.51441 0.0180724 1 
114 1 -1.85849 13.7555 -7.46539 0.00720672 1 
115 1 -4.63484 14.3197 -7.91415 0.00768429 1 
116 1 -2.70662 16.4608 -7.84499 0.0235521 1 
117 1 -3.36141 15.1264 -5.45585 0.0468626 1 
118 1 -1.43226 17.2595 -5.31087 0.5438 5 
119 1 -4.19607 17.8188 -5.80904 0.0763529 1 
120 1 -2.28981 19.8979 -5.78514 0.0810323 1 
121 1 -2.90972 18.6078 -3.14795 2.36803 5 
122 1 -0.977618 20.6247 -3.37517 5.51581 5 
123 1 -3.7851 21.2346 -3.79324 0.2608 1 
124 1 -1.9089 23.3892 -3.65207 0.247788 1 
125 1 -2.44732 21.8263 -1.37953 8.30575 5 
126 1 -0.684001 23.9596 -1.04321 5.26788 5 
127 1 -3.376 24.7614 -1.45807 8.04166 5 
128 1 -1.39765 26.8072 -1.52419 7.33226 5 
129 1 30.561 1.75395 -13.9835 0.000305817 1 
130 1 29.9157 0.397852 -11.5315 0.0012012 1 
131 1 31.838 2.5215 -11.5545 0.00103186 1 
132 1 29.0627 3.10522 -11.9435 0.000808172 1 
133 1 30.986 5.22965 -11.9614 0.000783196 1 
134 1 30.336 3.87169 -9.51892 0.00259309 1 
135 1 32.2698 6.00331 -9.54944 0.00337749 1 
136 1 29.4835 6.58075 -9.91924 0.0031129 1 
137 1 31.4209 8.70879 -9.94117 0.00276353 1 
138 1 30.765 7.35591 -7.52259 0.0163949 1 
139 1 32.7239 9.49906 -7.52149 0.0313576 1 
140 1 29.9244 10.0453 -7.893 0.0108499 1 
141 1 31.8492 12.1771 -7.94629 0.0209222 1 
142 1 31.2397 10.8306 -5.47388 0.282755 1 
143 1 33.1076 12.9447 -5.52876 0.273542 1 
144 1 30.3223 13.4975 -5.97499 0.0900875 1 
145 1 32.2841 15.679 -5.93858 0.0535238 1 
146 1 31.5215 14.3033 -3.65527 1.27428 5 
147 1 -4.91359 16.4844 -3.44003 0.399198 1 
148 1 30.788 17.1058 -3.98851 0.457674 1 
149 1 -5.71026 19.1634 -3.84807 0.162205 1 
150 1 -6.57939 17.8474 -1.3428 6.38525 5 
151 1 -4.66601 19.9005 -1.34156 6.81183 5 
152 1 -7.29477 20.4957 -1.86425 4.92962 5 
153 1 -5.20442 22.6426 -1.80802 7.72101 2 
154 1 27.1482 0.985224 -11.9344 0.000573413 1 
155 1 28.4202 1.74794 -9.48735 0.0036524 1 
156 1 25.6558 2.34068 -9.89488 0.00167145 1 
157 1 27.5638 4.46037 -9.89682 0.00386948 1 
158 1 26.9297 3.10227 -7.44868 0.0233134 1 
159 1 28.8263 5.22387 -7.47077 0.0214406 1 
160 1 26.0694 5.8095 -7.80838 0.0176881 1 
161 1 27.9812 7.92613 -7.84396 0.0110761 1 
162 1 27.3435 6.58701 -5.33795 0.077081 1 
163 1 29.254 8.69358 -5.42882 0.116117 1 
164 1 26.497 9.27163 -5.73373 0.0424729 1 
165 1 28.3946 11.3483 -5.86589 0.101573 1 
166 1 27.787 9.98593 -3.17615 4.61567 5 
167 1 29.6581 12.0274 -3.53999 5.04324 5 
168 1 26.9318 12.672 -3.78463 4.83013 5 
169 1 28.8186 14.8126 -3.92197 4.53684 5 
170 1 28.0782 14.8453 -0.0925715 9.51893 5 
171 1 29.9748 15.9612 -1.73132 8.27964 5 
172 1 27.2816 16.3703 -2.06766 6.82533 5 
173 1 29.1471 18.5332 -1.85663 5.99065 5 
174 1 23.7455 0.227085 -9.89987 0.0018158 1 
175 1 25.0171 1.00435 -7.42981 0.0139386 1 
176 1 22.2675 1.59398 -7.84498 0.0235516 1 
177 1 24.1681 3.6968 -7.84795 0.0183486 1 
178 1 23.5418 2.39262 -5.31087 0.543818 5 
179 1 25.4467 4.4356 -5.35806 0.731922 5 
180 1 22.6843 5.03111 -5.78512 0.0810175 1 
181 1 24.5891 7.17366 -5.73788 0.0330293 1 
182 1 23.9965 5.75784 -3.37514 5.51574 5 
183 1 25.8495 7.94554 -3.22043 0.335471 1 
184 1 23.0652 8.52235 -3.65205 0.247739 1 
185 1 24.998 10.5929 -3.63303 2.79879 5 
186 1 24.2902 9.09283 -1.04321 5.26819 5 
187 1 23.5764 11.9403 -1.52417 7.33202 5 
188 1 25.6524 14.0452 -1.72391 10.1797 5 
189 1 21.6127 0.259604 -5.45585 0.0468578 1 
190 1 18.8365 0.812121 -5.93859 0.0535123 1 
191 1 20.778 2.95195 -5.80904 0.0763426 1 
192 1 20.0605 1.61752 -3.44003 0.399171 1 
193 1 22.0644 3.74096 -3.14794 2.36802 5 
194 1 19.2639 4.29651 -3.84807 0.162198 1 
195 1 21.189 6.36781 -3.79322 0.260768 1 
196 1 20.3081 5.03369 -1.34154 6.81157 5 
197 1 22.5268 6.95952 -1.37951 8.30607 5 
198 1 19.7697 7.77577 -1.808 7.72094 2 
199 1 21.5981 9.89451 -1.45805 8.0416 5 
200 1 17.3404 2.239 -3.98852 0.45762 1 
201 1 16.5272 1.0943 -1.73131 8.27984 5 
202 1 18.3947 2.98053 -1.34281 6.38512 5 
203 1 15.6996 3.66635 -1.85666 5.99054 5 
204 1 17.6793 5.62886 -1.86426 4.9295 5 
205 1 13.834 1.50346 -2.0677 6.82514 5 
215 1 0.0443227 17.7867 -14.7922 9.95857e-05 1 
229 1 -2.93737 10.837 -14.3998 0.000236247 1 
230 1 -1.01761 12.9613 -14.3908 0.000153429 1 
231 1 -3.79251 13.5394 -14.8063 0.000169521 1 
232 1 -1.87265 15.664 -14.7986 8.84535e-05 1 
233 1 -2.5085 14.3162 -12.3592 0.000431507 1 
234 1 -0.593547 16.4377 -12.3475 0.000259642 1 
235 1 -3.36318 17.0182 -12.765 0.000281981 1 
236 1 -1.44697 19.1416 -12.7509 0.000328071 1 
237 1 -2.0833 17.7935 -10.3075 0.00129666 1 
238 1 -0.171319 19.9151 -10.2898 0.00211766 1 
239 1 -2.93434 20.4983 -10.7081 0.00125407 1 
240 1 -1.02508 22.6142 -10.6904 0.0015477 1 
241 1 -1.65854 21.2678 -8.22583 0.00480291 1 
242 1 -2.5107 23.9691 -8.63677 0.00256965 1 
243 1 -0.613786 26.0755 -8.637 0.00578721 1 
244 1 -1.23664 24.7287 -6.14075 0.0132043 1 
245 1 -2.10272 27.4322 -6.56295 0.0170956 1 
246 1 -0.202925 29.519 -6.63226 0.0326522 1 
247 1 -0.820312 28.1536 -4.06098 0.212693 1 
248 1 -1.6828 30.8815 -4.59812 0.0710095 1 
249 1 -0.364242 31.5777 -2.2492 2.71727 5 
250 1 -1.25108 34.4252 -2.66953 0.846189 5 
251 1 0.339794 35.3355 0.0755055 7.97611 5 
260 1 31.6324 6.58396 -14.4 0.000184403 1 
261 1 33.5595 8.71045 -14.4041 0.000224149 1 
262 1 30.7789 9.28656 -14.8055 0.000153953 1 
263 1 32.705 11.4127 -14.8101 0.000187605 1 
264 1 32.0633 10.0601 -12.3759 0.000607104 1 
265 1 -4.42977 12.1893 -12.3739 0.000694047 1 
266 1 31.2089 12.7615 -12.7821 0.000622376 1 
267 1 -5.28383 14.8921 -12.7779 0.000731888 1 
268 1 32.4981 13.5395 -10.3558 0.00294933 1 
269 1 -3.99488 15.6725 -10.3262 0.00313413 1 
270 1 31.6467 16.2437 -10.7581 0.00261788 1 
271 1 -4.85075 18.3737 -10.7377 0.00125848 1 
272 1 -5.47729 17.0291 -8.31109 0.0135918 1 
273 1 -3.56763 19.1508 -8.27131 0.00528004 1 
274 1 -6.33793 19.7332 -8.72702 0.00546372 1 
275 1 -4.42 21.8601 -8.67071 0.00355853 1 
276 1 -5.05284 20.5118 -6.26076 0.0132411 1 
277 1 -3.14554 22.631 -6.17476 0.0196478 1 
278 1 -5.90963 23.2343 -6.62966 0.0233722 1 
279 1 -3.99421 25.3274 -6.59349 0.00706696 1 
280 1 -4.65393 24.0229 -4.10788 0.164546 1 
281 1 -2.72693 26.0763 -4.08897 0.0482676 1 
282 1 -5.48428 26.685 -4.58129 0.117649 1 
283 1 -3.5803 28.8089 -4.49705 0.0754428 1 
284 1 -4.20432 27.4489 -2.11544 6.893 5 
285 1 -2.22139 29.6 -2.00334 2.17321 5 
286 1 -5.0864 30.2671 -2.49261 1.46184 5 
287 1 -3.15917 32.2726 -2.48132 6.32654 5 
288 1 -1.34236 33.108 -0.356294 12.4408 5 
289 1 -2.57644 35.6129 -0.442431 6.20136 5 
294 1 27.7888 2.33704 -14.3847 0.000170673 1 
295 1 29.7079 4.45929 -14.3912 0.000237001 1 
296 1 26.9352 5.04141 -14.791 0.000166855 1 
297 1 28.8549 7.16311 -14.7964 0.000197574 1 
298 1 28.2097 5.81168 -12.3484 0.000841078 1 
299 1 30.134 7.93399 -12.3628 0.000582115 1 
300 1 27.3569 8.5126 -12.7507 0.000744365 1 
301 1 29.2798 10.6337 -12.7692 0.000593417 1 
302 1 28.6332 9.2787 -10.3142 0.00197164 1 
303 1 30.5619 11.4028 -10.349 0.00279747 1 
304 1 27.7772 11.9764 -10.731 0.00190249 1 
305 1 29.7091 14.1059 -10.758 0.00199871 1 
306 1 29.0515 12.7321 -8.32622 0.0106406 1 
307 1 30.9983 14.8862 -8.35293 0.0110051 1 
308 1 28.2065 15.4474 -8.73647 0.00263782 1 
309 1 30.1495 17.5904 -8.75206 0.00530309 1 
310 1 29.4908 16.2191 -6.34342 0.0300186 1 
311 1 -6.97851 18.3932 -6.34077 0.0361943 1 
312 1 28.6545 18.9428 -6.75986 0.0136291 1 
313 1 -7.82723 21.1004 -6.72988 0.0137375 1 
314 1 29.9427 19.7627 -4.35354 0.109005 1 
315 1 -6.54652 21.8688 -4.26531 0.0504749 1 
316 1 29.1066 22.4535 -4.74396 0.0600149 1 
317 1 -7.41879 24.6282 -4.56588 0.216326 1 
318 1 -7.97934 23.2291 -2.27797 7.07023 2 
319 1 -6.14788 25.4158 -1.9053 7.59712 5 
320 1 -8.93764 26.0141 -2.36784 7.95661 5 
321 1 -7.00574 28.0366 -2.67785 6.70796 5 
322 1 -5.90323 28.8283 -0.309542 11.1623 5 
323 1 -8.70625 29.1964 -0.839864 7.29144 5 
324 1 25.8727 0.216005 -14.3847 0.000125946 1 
325 1 23.1014 0.797118 -14.7985 8.86415e-05 1 
326 1 25.0184 2.9198 -14.7922 9.9547e-05 1 
327 1 24.3805 1.57083 -12.3474 0.000259704 1 
328 1 26.2939 3.69134 -12.3429 0.000456219 1 
329 1 23.5271 4.27477 -12.7508 0.000328526 1 
330 1 25.4407 6.39476 -12.7445 0.00058567 1 
331 1 24.8028 5.0483 -10.2897 0.00211801 1 
332 1 26.7114 7.16158 -10.2881 0.00326455 1 
333 1 23.949 7.74733 -10.6904 0.0015483 1 
334 1 25.8577 9.85988 -10.6998 0.00209129 1 
335 1 25.2206 8.51123 -8.21742 0.00572817 1 
336 1 27.1254 10.615 -8.26257 0.0105437 1 
337 1 24.3603 11.2087 -8.63697 0.0057891 1 
338 1 26.2709 13.3146 -8.68692 0.00728077 1 
339 1 25.6252 11.9544 -6.18005 0.0249864 1 
340 1 27.5485 14.0641 -6.30547 0.023194 1 
341 1 24.7711 14.6521 -6.63225 0.0326566 1 
342 1 26.7097 16.7948 -6.71398 0.012353 1 
343 1 26.0794 15.3847 -4.29895 0.250892 1 
344 1 28.0352 17.612 -4.34993 0.196881 1 
345 1 25.24 18.1315 -4.65292 0.0868826 1 
346 1 27.1561 20.2793 -4.78814 0.125115 1 
347 1 26.4245 19.0052 -2.23508 6.27509 5 
348 1 28.392 21.0449 -2.40553 4.63267 5 
349 1 25.6557 21.5287 -2.85461 6.47071 5 
350 1 27.6669 23.7752 -2.76625 7.13167 2 
351 1 24.5073 25.5605 -0.819559 9.28761 5 
352 1 21.6109 2.15135 -12.765 0.000281986 1 
353 1 20.9792 0.805622 -10.3262 0.00313353 1 
354 1 22.8908 2.92668 -10.3075 0.00129667 1 
355 1 20.1234 3.50683 -10.7377 0.00125789 1 
356 1 22.0398 5.63146 -10.708 0.00125574 1 
357 1 21.4065 4.28399 -8.27129 0.00527918 1 
358 1 23.3156 6.40094 -8.22581 0.00480502 1 
359 1 20.5541 6.99325 -8.67069 0.00356004 1 
360 1 22.4634 9.10222 -8.63675 0.00257213 1 
361 1 21.8286 7.76414 -6.17473 0.0196466 1 
362 1 23.7375 9.86184 -6.14072 0.0132124 1 
363 1 20.9799 10.4606 -6.59347 0.00706906 1 
364 1 22.8714 12.5653 -6.56293 0.0170993 1 
365 1 22.2472 11.2095 -4.08895 0.0482699 1 
366 1 24.1538 13.2867 -4.06095 0.212707 1 
367 1 21.3937 13.9421 -4.49705 0.0754209 1 
368 1 23.2912 16.0146 -4.5981 0.0710078 1 
369 1 22.7526 14.7331 -2.00335 2.1727 5 
370 1 24.6098 16.7108 -2.24917 2.71762 5 
371 1 21.8149 17.4057 -2.48126 6.32704 5 
372 1 23.7229 19.5583 -2.66952 0.84662 5 
373 1 23.6318 18.2412 -0.356308 12.4417 5 
374 1 22.3976 20.746 -0.442412 6.20154 5 
375 1 18.1992 1.3769 -10.7581 0.00261828 1 
376 1 19.4968 2.16222 -8.31109 0.0135876 1 
377 1 16.7019 2.72356 -8.75207 0.00530257 1 
378 1 18.6362 4.86635 -8.72701 0.00546357 1 
379 1 17.9956 3.52634 -6.34078 0.0361877 1 
380 1 19.9213 5.64492 -6.26075 0.013237 1 
381 1 17.1469 6.23355 -6.7299 0.0137442 1 
382 1 19.0645 8.36748 -6.62966 0.0233754 1 
383 1 18.4276 7.002 -4.26531 0.0504814 1 
384 1 20.3202 9.15609 -4.10786 0.164544 1 
385 1 17.5553 9.76137 -4.56588 0.216353 1 
386 1 19.4898 11.8182 -4.58128 0.117659 1 
387 1 18.8262 10.549 -1.90528 7.59722 5 
388 1 20.7698 12.5821 -2.11544 6.89317 5 
389 1 17.9683 13.1697 -2.67786 6.70792 5 
390 1 19.8876 15.4002 -2.49259 1.46161 5 
391 1 19.0709 13.9614 -0.309539 11.1616 5 
392 1 14.7589 0.580509 -8.7365 0.00263893 1 
393 1 16.0432 1.35227 -6.34345 0.0300142 1 
394 1 13.2621 1.92795 -6.71401 0.0123591 1 
395 1 15.2069 4.07601 -6.75989 0.0136341 1 
396 1 14.5877 2.74521 -4.34997 0.196866 1 
397 1 16.4951 4.89587 -4.35357 0.109007 1 
398 1 13.7086 5.41247 -4.78817 0.125124 1 
399 1 15.6591 7.58661 -4.74398 0.0600216 1 
400 1 14.9444 6.17802 -2.40555 4.63291 5 
401 1 16.9948 8.36225 -2.27796 7.07034 2 
402 1 14.2193 8.90834 -2.76626 7.13183 2 
403 1 16.0365 11.1472 -2.36783 7.9568 5 
404 1 16.2678 14.3295 -0.839862 7.29121 5 
405 1 12.6319 0.517866 -4.29899 0.250892 1 
406 1 9.84365 1.14774 -4.59812 0.0710217 1 
407 1 11.7924 3.26462 -4.65294 0.0868828 1 
408 1 11.1622 1.84391 -2.2492 2.71766 5 
409 1 12.977 4.13832 -2.2351 6.27503 5 
410 1 10.2754 4.69142 -2.66953 0.846522 5 
411 1 12.2081 6.66184 -2.85465 6.47076 5 
412 1 11.0597 10.6936 -0.819551 9.28719 5 
413 1 6.44006 0.533348 -2.49261 1.46158 5 
414 1 8.36732 2.53886 -2.48129 6.32721 5 
415 1 10.1843 3.37433 -0.356344 12.4418 5 
416 1 8.9501 5.87909 -0.442453 6.20146 5 
445 1 -0.387315 23.9619 -13.1515 0.000512902 1 
446 1 -1.24133 26.6634 -13.5629 0.000404497 1 
447 1 0.0291389 27.4277 -11.1153 0.00196846 1 
448 1 -0.821588 30.1316 -11.5315 0.00119975 1 
449 1 -0.401292 33.6054 -9.51894 0.00259281 1 
450 1 0.0276471 37.0897 -7.52261 0.016397 1 
475 1 -4.21624 19.7219 -13.1696 0.000395037 1 
476 1 -2.30038 21.8438 -13.1553 0.000421162 1 
477 1 -5.07033 22.4244 -13.575 0.000341071 1 
478 1 -3.15494 24.5451 -13.5639 0.000307637 1 
479 1 -3.78833 23.1997 -11.1142 0.0008976 1 
480 1 -1.88042 25.3144 -11.1032 0.00120295 1 
481 1 -4.64434 25.9005 -11.5243 0.000709268 1 
482 1 -2.73546 28.016 -11.5184 0.000947329 1 
483 1 -3.36974 26.6715 -9.05188 0.00256921 1 
484 1 -1.47042 28.7787 -9.06076 0.00589251 1 
485 1 -4.22747 29.3726 -9.47194 0.00227441 1 
486 1 -2.3171 31.4817 -9.48737 0.00365112 1 
487 1 -2.97189 30.1416 -6.99788 0.0246362 1 
488 1 -1.04005 32.2431 -7.06098 0.00586937 1 
489 1 -3.80756 32.836 -7.4487 0.0233091 1 
490 1 -1.91099 34.9576 -7.47079 0.0214422 1 
491 1 -2.5289 33.5827 -5.01461 0.0539133 1 
492 1 -0.645687 35.7299 -5.11904 0.171621 1 
493 1 -3.39386 36.3208 -5.33797 0.0770961 1 
494 1 -1.48333 38.4273 -5.42884 0.116108 1 
495 1 -2.0875 37.1119 -2.85474 3.44709 5 
496 1 -0.116497 39.1202 -3.15098 8.20505 5 
497 1 -2.95039 39.7197 -3.17621 4.61478 5 
498 1 -1.07928 41.7611 -3.54003 5.04336 5 
499 1 -2.98537 41.7642 -1.16318 8.95496 5 
500 1 -2.65915 44.5791 -0.0925787 9.51959 5 
520 1 30.3562 15.465 -13.1883 0.000515099 1 
521 1 -6.13817 17.5949 -13.1846 0.000488897 1 
522 1 29.5029 18.1694 -13.5952 0.000430435 1 
523 1 -6.99162 20.299 -13.5891 0.000461522 1 
524 1 30.7917 18.9476 -11.1649 0.00155915 1 
525 1 -5.70404 21.0791 -11.1404 0.00138033 1 
526 1 29.9393 21.6536 -11.5648 0.00147302 1 
527 1 -6.5588 23.7804 -11.544 0.000771358 1 
528 1 -7.19181 22.4426 -9.11487 0.0054096 1 
529 1 -5.27409 24.5581 -9.07766 0.00161693 1 
530 1 -8.04766 25.1367 -9.5202 0.00190683 1 
531 1 -6.13145 27.2596 -9.4891 0.00175416 1 
532 1 -6.76179 25.9171 -7.05685 0.0125522 1 
533 1 -4.85725 28.0375 -7.0026 0.00911405 1 
534 1 -7.62171 28.6224 -7.4654 0.00720716 1 
535 1 -5.72019 30.7381 -7.42983 0.0139341 1 
536 1 -6.35451 29.4322 -4.9782 0.052515 1 
537 1 -4.46696 31.5315 -4.92224 0.602141 5 
538 1 -7.19546 32.1264 -5.3109 0.543838 5 
539 1 -5.29063 34.1694 -5.35809 0.731936 5 
540 1 -5.94889 33.0609 -2.13151 13.5895 5 
541 1 -3.9763 34.9187 -2.94384 5.75023 5 
542 1 -6.74081 35.4916 -3.37517 5.51573 5 
543 1 -4.88779 37.6793 -3.22047 0.335445 1 
544 1 -5.42297 35.9965 -0.919353 7.68605 5 
545 1 -6.44722 38.8265 -1.04319 5.26775 5 
559 1 26.5031 11.2132 -13.1616 0.000606694 1 
560 1 28.4268 13.3362 -13.1786 0.000452789 1 
561 1 25.6504 13.916 -13.5731 0.000446303 1 
562 1 27.5745 16.0406 -13.5875 0.000356064 1 
563 1 26.9259 14.6811 -11.1434 0.0012478 1 
564 1 28.8586 16.8122 -11.1657 0.00129627 1 
565 1 26.0747 17.3884 -11.5544 0.00103146 1 
566 1 28.0064 19.5198 -11.5716 0.00119199 1 
567 1 27.3581 18.1595 -9.14721 0.00298968 1 
568 1 29.2991 20.3015 -9.15551 0.00480255 1 
569 1 26.5065 20.8702 -9.54942 0.00337699 1 
570 1 28.4493 23.0103 -9.5439 0.00596807 1 
571 1 27.8069 21.6561 -7.15904 0.0208793 1 
572 1 -8.68344 23.8171 -7.08155 0.0333708 1 
573 1 26.9606 24.3659 -7.52148 0.0313551 1 
574 1 -9.54346 26.4885 -7.51441 0.0180767 1 
575 1 28.2311 25.2026 -5.01951 0.312226 1 
576 1 -8.26641 27.264 -5.07659 0.196746 1 
577 1 27.3444 27.8116 -5.52878 0.273541 1 
578 1 -9.12462 29.9933 -5.45587 0.046864 1 
579 1 -9.83198 28.5926 -3.19878 6.22513 5 
580 1 -7.85412 30.8425 -2.91411 1.23941 5 
581 1 -10.6768 31.3513 -3.44004 0.399213 1 
582 1 -8.6729 33.4747 -3.14798 2.36821 5 
583 1 -9.75781 31.9006 -0.831841 2.62213 5 
584 1 -10.4292 34.7674 -1.34159 6.81185 5 
585 1 -8.21054 36.6932 -1.37952 8.30553 5 
594 1 22.6737 6.97698 -13.1553 0.00042177 1 
595 1 24.5868 9.09506 -13.1515 0.000513258 1 
596 1 21.8192 9.67826 -13.5639 0.000307945 1 
597 1 23.7328 11.7965 -13.5629 0.000404503 1 
598 1 23.0937 10.4475 -11.1032 0.00120325 1 
599 1 25.0032 12.5609 -11.1153 0.00197069 1 
600 1 22.2386 13.1492 -11.5184 0.000947615 1 
601 1 24.1524 15.2647 -11.5315 0.00120124 1 
602 1 23.5036 13.9118 -9.06074 0.00589589 1 
603 1 25.4246 16.0245 -9.10362 0.00379858 1 
604 1 22.6569 16.6148 -9.48736 0.00365277 1 
605 1 24.5727 18.7385 -9.51892 0.0025926 1 
606 1 23.934 17.3762 -7.06098 0.00586677 1 
607 1 25.8507 19.5054 -7.12637 0.0137062 1 
608 1 23.0631 20.0907 -7.47077 0.0214408 1 
609 1 25.0017 22.2228 -7.52258 0.0163905 1 
610 1 24.3283 20.8631 -5.11902 0.171621 1 
611 1 26.3261 22.9974 -5.17219 0.120624 1 
612 1 23.4907 23.5605 -5.42882 0.116138 1 
613 1 25.4765 25.6975 -5.47388 0.28277 1 
614 1 24.8575 24.2533 -3.15096 8.20555 5 
615 1 26.6361 26.586 -2.73429 8.05121 5 
616 1 23.8948 26.8942 -3.54003 5.04354 5 
617 1 25.7583 29.1702 -3.65528 1.27429 5 
618 1 -11.5045 29.7628 -1.32137 7.4422 5 
619 1 24.2116 30.828 -1.73131 8.27948 5 
620 1 -12.3426 32.7143 -1.34282 6.38494 5 
625 1 18.836 2.72806 -13.1846 0.000488897 1 
626 1 20.7579 4.85505 -13.1696 0.000395277 1 
627 1 17.9825 5.4321 -13.5891 0.000462139 1 
628 1 19.9038 7.55754 -13.575 0.000340936 1 
629 1 19.2701 6.21224 -11.1403 0.0013805 1 
630 1 21.1858 8.33284 -11.1142 0.000898535 1 
631 1 18.4153 8.91354 -11.544 0.000771505 1 
632 1 20.3298 11.0337 -11.5243 0.000709341 1 
633 1 19.7 9.6913 -9.07764 0.00161786 1 
634 1 21.6043 11.8046 -9.05186 0.00256905 1 
635 1 18.8426 12.3928 -9.4891 0.00175365 1 
636 1 20.7466 14.5057 -9.47194 0.00227312 1 
637 1 20.1168 13.1706 -7.0026 0.00910977 1 
638 1 22.0022 15.2747 -6.99787 0.0246391 1 
639 1 19.2538 15.8712 -7.42982 0.0139365 1 
640 1 21.1665 17.9691 -7.4487 0.0233123 1 
641 1 20.5071 16.6646 -4.92222 0.602106 5 
642 1 22.4451 18.7158 -5.01461 0.0539284 1 
643 1 19.6834 19.3025 -5.35808 0.731928 5 
644 1 21.5802 21.4539 -5.33795 0.0770936 1 
645 1 20.9977 20.0518 -2.94383 5.7502 5 
646 1 22.8865 22.245 -2.85472 3.44776 5 
647 1 20.0863 22.8124 -3.22044 0.335525 1 
648 1 22.0237 24.8528 -3.17614 4.61576 5 
649 1 21.9888 26.8973 -1.16319 8.9553 5 
650 1 22.315 29.7122 -0.0926026 9.51876 5 
651 1 16.9086 0.598125 -13.1883 0.000515427 1 
652 1 14.127 1.17369 -13.5876 0.000356378 1 
653 1 16.0553 3.30257 -13.5953 0.000430845 1 
654 1 15.4111 1.94537 -11.1658 0.00129707 1 
655 1 17.3442 4.08073 -11.1649 0.00155929 1 
656 1 14.5589 4.65298 -11.5716 0.00119282 1 
657 1 16.4917 6.78678 -11.5648 0.00147348 1 
658 1 15.8515 5.43469 -9.15552 0.00480353 1 
659 1 17.7823 7.5758 -9.11487 0.00541141 1 
660 1 15.0017 8.14341 -9.54391 0.00596802 1 
661 1 16.9264 10.2699 -9.5202 0.00190699 1 
662 1 16.2907 8.95025 -7.08156 0.0333789 1 
663 1 18.2123 11.0502 -7.05685 0.0125504 1 
664 1 15.4306 11.6217 -7.51441 0.018071 1 
665 1 17.3523 13.7556 -7.46541 0.00720873 1 
666 1 16.7077 12.3971 -5.07659 0.196761 1 
667 1 18.6195 14.5654 -4.97819 0.0525233 1 
668 1 15.8494 15.1265 -5.45586 0.0468645 1 
669 1 17.7786 17.2595 -5.31088 0.54381 5 
670 1 17.1199 15.9756 -2.91411 1.23929 5 
671 1 19.0251 18.194 -2.13151 13.5896 5 
672 1 16.3011 18.6078 -3.14797 2.36794 5 
673 1 18.2332 20.6247 -3.37516 5.51582 5 
674 1 19.5511 21.1296 -0.919346 7.68572 5 
675 1 16.7635 21.8264 -1.37952 8.30605 5 
676 1 18.5269 23.9597 -1.0432 5.26807 5 
677 1 10.7049 0.397856 -11.5315 0.00120107 1 
678 1 12.6272 2.52151 -11.5545 0.00103111 1 
679 1 11.977 1.15761 -9.10366 0.00379801 1 
680 1 13.9105 3.29265 -9.14725 0.00299184 1 
681 1 11.1252 3.8717 -9.51895 0.00259258 1 
682 1 13.0589 6.00332 -9.54945 0.00337834 1 
683 1 12.4032 4.63853 -7.1264 0.0137108 1 
684 1 14.3594 6.78924 -7.15906 0.0208821 1 
685 1 11.5541 7.35593 -7.52259 0.0163924 1 
686 1 13.5131 9.49909 -7.52149 0.0313595 1 
687 1 12.8785 8.13058 -5.17221 0.12064 1 
688 1 14.7835 10.3358 -5.01952 0.312237 1 
689 1 12.0289 10.8306 -5.47389 0.28276 1 
690 1 13.8968 12.9447 -5.52877 0.273522 1 
691 1 13.1885 11.7192 -2.73429 8.05125 5 
692 1 15.1421 13.7258 -3.19878 6.22508 5 
693 1 12.3107 14.3034 -3.65529 1.2743 5 
694 1 14.2972 16.4844 -3.44005 0.399192 1 
695 1 13.4696 14.896 -1.32138 7.44214 5 
696 1 15.2163 17.0338 -0.831847 2.62188 5 
697 1 12.6315 17.8474 -1.34282 6.3853 5 
698 1 14.5448 19.9006 -1.34156 6.81149 5 
699 1 9.20936 1.74795 -9.48739 0.00365226 1 
700 1 8.55458 0.407871 -6.99789 0.0246418 1 
701 1 10.4864 2.50934 -7.06101 0.00586806 1 
702 1 7.71891 3.10227 -7.44873 0.0233164 1 
703 1 9.6155 5.22388 -7.4708 0.02144 1 
704 1 8.99757 3.84895 -5.01463 0.0539346 1 
705 1 10.8808 5.99621 -5.11903 0.171613 1 
706 1 8.13263 6.58702 -5.33798 0.0770962 1 
707 1 10.0432 8.6936 -5.42882 0.11613 1 
708 1 9.43897 7.37817 -2.85472 3.44779 5 
709 1 11.41 9.3865 -3.15097 8.20541 5 
710 1 8.57612 9.98593 -3.17616 4.61589 5 
711 1 10.4473 12.0274 -3.54002 5.04328 5 
712 1 8.54124 12.0305 -1.16321 8.95497 5 
713 1 8.8674 14.8453 -0.0926011 9.51912 5 
714 1 10.7639 15.9613 -1.73134 8.27962 5 
715 1 5.80628 1.00435 -7.42986 0.013935 1 
716 1 7.05951 1.79772 -4.92224 0.602079 5 
717 1 4.33101 2.39261 -5.31094 0.543796 5 
718 1 6.23585 4.4356 -5.35812 0.731963 5 
719 1 5.57759 3.32713 -2.13156 13.5895 5 
720 1 7.55019 5.18492 -2.94387 5.75034 5 
721 1 4.78569 5.75782 -3.37521 5.51578 5 
722 1 6.63871 7.94553 -3.22045 0.335542 1 
723 1 6.10352 6.2627 -0.919393 7.68565 5 
724 1 5.07929 9.09277 -1.04322 5.26736 5 
725 1 2.40185 0.259599 -5.4559 0.0468553 1 
726 1 3.67235 1.10872 -2.91415 1.23928 5 
727 1 0.849686 1.61752 -3.44007 0.399186 1 
728 1 2.85358 3.74094 -3.14802 2.36802 5 
729 1 1.7687 2.1669 -0.831872 2.622 5 
730 1 1.0973 5.03367 -1.34161 6.81181 5 
731 1 3.31597 6.95948 -1.37957 8.30563 5 
732 1 0.022005 0.0290807 -1.3214 7.44217 5 
791 1 -2.0948 29.3663 -13.975 0.000267102 1 
792 1 -0.176336 31.4877 -13.9835 0.000305161 1 
793 1 -2.94849 32.0708 -14.3848 0.000170197 1 
794 1 -1.02941 34.193 -14.3912 0.000237124 1 
795 1 -1.67458 32.8389 -11.9435 0.000807441 1 
796 1 -2.52767 35.5454 -12.3484 0.000841226 1 
797 1 -0.60338 37.6677 -12.3628 0.000582166 1 
798 1 -1.25387 36.3145 -9.91926 0.00311398 1 
799 1 -2.10415 39.0124 -10.3142 0.00197241 1 
800 1 -0.175411 41.1365 -10.349 0.00279864 1 
801 1 -0.812964 39.7791 -7.89303 0.0108449 1 
802 1 -1.68586 42.4659 -8.32625 0.0106387 1 
803 1 -0.415022 43.2313 -5.97501 0.0900799 1 
833 1 -5.92536 25.1261 -13.9823 0.000238236 1 
834 1 -4.00989 27.247 -13.9743 0.000219857 1 
835 1 -6.78088 27.8282 -14.3908 0.000153448 1 
836 1 -4.86461 29.9497 -14.3847 0.000125958 1 
837 1 -5.50107 28.6022 -11.9364 0.000503787 1 
838 1 -3.58907 30.719 -11.9344 0.000572831 1 
839 1 -6.35676 31.3045 -12.3475 0.000259684 1 
840 1 -4.44343 33.4251 -12.3429 0.000455884 1 
841 1 -5.08146 32.0744 -9.89491 0.00167058 1 
842 1 -3.17354 34.1941 -9.89685 0.00386895 1 
843 1 -5.93452 34.782 -10.2898 0.00211713 1 
844 1 -4.02597 36.8953 -10.2881 0.00326423 1 
845 1 -4.66796 35.5432 -7.80842 0.0176864 1 
846 1 -2.75618 37.6599 -7.84399 0.0110777 1 
847 1 -5.51673 38.245 -8.21746 0.00572837 1 
848 1 -3.61197 40.3487 -8.2626 0.0105462 1 
849 1 -4.24036 39.0054 -5.73377 0.042464 1 
850 1 -2.34278 41.0821 -5.86592 0.101559 1 
851 1 -5.11212 41.6881 -6.18007 0.0249925 1 
852 1 -3.18885 43.7978 -6.3055 0.0232026 1 
853 1 -3.80559 42.4058 -3.78465 4.83007 5 
854 1 -1.91877 44.5464 -3.92199 4.53645 5 
879 1 28.6499 20.8743 -13.9995 0.000336375 1 
880 1 -7.84573 23.0018 -13.9936 0.000330928 1 
881 1 27.7962 23.5773 -14.4041 0.000224096 1 
882 1 -8.70066 25.7039 -14.3998 0.000235937 1 
883 1 -9.33732 24.3551 -11.9678 0.000818927 1 
884 1 -7.41485 26.4811 -11.9516 0.000565995 1 
885 1 -10.193 27.0561 -12.3739 0.000694145 1 
886 1 -8.27174 29.1831 -12.3592 0.000431557 1 
887 1 -8.9047 27.8369 -9.92892 0.00157806 1 
888 1 -6.99184 29.9608 -9.89989 0.00181532 1 
889 1 -9.75807 30.5393 -10.3263 0.0031347 1 
890 1 -7.84649 32.6604 -10.3075 0.00129594 1 
891 1 -8.46982 31.3277 -7.84501 0.0235492 1 
892 1 -6.56916 33.4305 -7.84799 0.018354 1 
893 1 -9.33083 34.0177 -8.27133 0.00527903 1 
894 1 -7.42175 36.1347 -8.22585 0.00480162 1 
895 1 -8.05302 34.7648 -5.78516 0.0810216 1 
896 1 -6.14822 36.9074 -5.73791 0.0330238 1 
897 1 -8.90876 37.4979 -6.17477 0.0196454 1 
898 1 -6.99988 39.5956 -6.14075 0.0132096 1 
899 1 -7.67211 38.2561 -3.65207 0.247758 1 
900 1 -5.73938 40.3267 -3.63304 2.79855 5 
901 1 -8.49017 40.9432 -4.08896 0.0482606 1 
902 1 -6.58359 43.0205 -4.06096 0.212725 1 
903 1 -7.16091 41.674 -1.52417 7.33213 5 
904 1 -5.085 43.779 -1.72393 10.1796 5 
905 1 -7.9847 44.4669 -2.00333 2.17275 5 
926 1 24.7977 16.6208 -13.9835 0.000305703 1 
927 1 26.7218 18.746 -13.995 0.000290213 1 
928 1 23.9446 19.3262 -14.3912 0.000237276 1 
929 1 25.8691 21.4508 -14.4 0.000184307 1 
930 1 25.2227 20.0965 -11.9614 0.000783497 1 
931 1 27.1546 22.2259 -11.9715 0.000852732 1 
932 1 24.3707 22.8009 -12.3628 0.000582261 1 
933 1 26.3 24.9269 -12.3759 0.000607191 1 
934 1 25.6576 23.5757 -9.94116 0.00276247 1 
935 1 27.5899 25.7054 -9.9497 0.00270975 1 
936 1 24.7987 26.2697 -10.349 0.00279628 1 
937 1 26.7349 28.4064 -10.3558 0.00295013 1 
938 1 26.086 27.0439 -7.94631 0.020927 1 
939 1 -10.398 29.1865 -7.91416 0.00768604 1 
940 1 25.2351 29.753 -8.35295 0.0110067 1 
941 1 -11.2405 31.896 -8.31112 0.013595 1 
942 1 26.5209 30.5458 -5.9386 0.053529 1 
943 1 -9.95927 32.6857 -5.80907 0.0763427 1 
944 1 -12.7417 33.2601 -6.3408 0.0361959 1 
945 1 -10.816 35.3786 -6.26078 0.0132397 1 