ITEM: TIMESTEP
0
ITEM: NUMBER OF ATOMS
10116
ITEM: BOX BOUNDS pp pp ss
0 44.641950562
0 126.785054324
-192.6592962858629 215.6342061971211
ITEM: ATOMS id type x y z c_csym c_cna 
57323 1 0.105396 1.26985 -14.6246 5.62677e-05 1 
57344 1 2.86457 2.04577 -14.5538 5.95198e-05 1 
57347 1 5.62337 2.82189 -14.4831 6.65425e-05 1 
57380 1 8.38226 3.5986 -14.4122 6.60582e-05 1 
59540 1 12.2269 0.493619 -14.6944 4.97665e-05 1 
59560 1 14.986 1.26985 -14.6246 5.62677e-05 1 
59561 1 17.7452 2.04577 -14.5538 5.95198e-05 1 
59597 1 20.504 2.82189 -14.4831 6.65425e-05 1 
59600 1 23.2629 3.5986 -14.4122 6.60582e-05 1 
61624 1 27.1075 0.493619 -14.6944 4.97665e-05 1 
61625 1 29.8667 1.26985 -14.6246 5.62677e-05 1 
61652 1 32.6259 2.04577 -14.5538 5.95198e-05 1 
61655 1 35.3847 2.82189 -14.4831 6.65425e-05 1 
61691 1 38.1436 3.5986 -14.4122 6.60582e-05 1 
63332 1 41.9882 0.493619 -14.6944 4.97665e-05 1 
55181 1 1.77742 5.93064 -14.1987 6.21355e-05 1 
55184 1 4.53584 6.7071 -14.1279 6.46172e-05 1 
55213 1 7.2948 7.48402 -14.057 8.56185e-05 1 
57383 1 11.1411 4.3761 -14.3416 7.67559e-05 1 
57422 1 13.8998 5.15366 -14.2701 6.80942e-05 1 
57425 1 16.6581 5.93064 -14.1987 6.21355e-05 1 
57472 1 19.4165 6.7071 -14.1279 6.46172e-05 1 
57475 1 22.1755 7.48402 -14.057 8.56185e-05 1 
59647 1 26.0218 4.3761 -14.3416 7.67559e-05 1 
59650 1 28.7805 5.15366 -14.2701 6.80942e-05 1 
59707 1 31.5387 5.93064 -14.1987 6.21355e-05 1 
59710 1 34.2971 6.7071 -14.1279 6.46172e-05 1 
59775 1 37.0561 7.48402 -14.057 8.56185e-05 1 
61694 1 40.9024 4.3761 -14.3416 7.67559e-05 1 
61734 1 43.6611 5.15366 -14.2701 6.80942e-05 1 
48603 1 0.40756 16.1517 -14.6857 6.19957e-05 1 
50862 1 4.26715 13.0488 -14.9768 6.10458e-05 1 
50865 1 7.02465 13.8255 -14.904 0.000107485 1 
50898 1 9.78038 14.6015 -14.8277 0.000111071 1 
50901 1 12.5343 15.3765 -14.754 0.000119819 1 
50942 1 15.2882 16.1517 -14.6857 6.19957e-05 1 
53124 1 19.1478 13.0488 -14.9768 6.10458e-05 1 
53175 1 21.9053 13.8255 -14.904 0.000107485 1 
53178 1 24.661 14.6015 -14.8277 0.000111071 1 
53237 1 27.4149 15.3765 -14.754 0.000119819 1 
53240 1 30.1689 16.1517 -14.6857 6.19957e-05 1 
55490 1 34.0285 13.0488 -14.9768 6.10458e-05 1 
55493 1 36.7859 13.8255 -14.904 0.000107485 1 
55562 1 39.5417 14.6015 -14.8277 0.000111071 1 
55565 1 42.2956 15.3765 -14.754 0.000119819 1 
46387 1 2.05134 20.8034 -14.2637 7.9573e-05 1 
48628 1 3.16321 16.9273 -14.618 7.72996e-05 1 
48631 1 5.91954 17.7028 -14.5455 9.91562e-05 1 
48664 1 8.67405 18.4775 -14.4694 0.000128368 1 
48667 1 11.4262 19.2525 -14.3965 0.000157339 1 
48707 1 14.1781 20.0279 -14.3298 7.24679e-05 1 
48710 1 16.932 20.8034 -14.2637 7.9573e-05 1 
50945 1 18.0439 16.9273 -14.618 7.72996e-05 1 
50994 1 20.8002 17.7028 -14.5455 9.91562e-05 1 
50997 1 23.5547 18.4775 -14.4694 0.000128368 1 
51054 1 26.3068 19.2525 -14.3965 0.000157339 1 
51057 1 29.0588 20.0279 -14.3298 7.24679e-05 1 
51120 1 31.8126 20.8034 -14.2637 7.9573e-05 1 
53307 1 32.9245 16.9273 -14.618 7.72996e-05 1 
53310 1 35.6808 17.7028 -14.5455 9.91562e-05 1 
53379 1 38.4353 18.4775 -14.4694 0.000128368 1 
53382 1 41.1875 19.2525 -14.3965 0.000157339 1 
53451 1 43.9394 20.0279 -14.3298 7.24679e-05 1 
46390 1 4.80621 21.5782 -14.1943 9.56436e-05 1 
46419 1 7.55989 22.3523 -14.1212 0.000115569 1 
46422 1 10.3113 23.1268 -14.0488 0.000130017 1 
48757 1 19.6869 21.5782 -14.1943 9.56436e-05 1 
48760 1 22.4405 22.3523 -14.1212 0.000115569 1 
48815 1 25.1919 23.1268 -14.0488 0.000130017 1 
51123 1 34.5675 21.5782 -14.1943 9.56436e-05 1 
51192 1 37.3212 22.3523 -14.1212 0.000115569 1 
51195 1 40.0726 23.1268 -14.0488 0.000130017 1 
44282 1 10.0036 29.4592 -14.9364 9.09124e-05 1 
46564 1 24.8843 29.4592 -14.9364 9.09125e-05 1 
49026 1 39.7649 29.4592 -14.9364 9.09125e-05 1 
42049 1 0.626264 31.0103 -14.8083 0.000105305 1 
42074 1 3.38007 31.7872 -14.7414 0.000100965 1 
42077 1 6.13246 32.5635 -14.6699 8.87668e-05 1 
42110 1 8.88323 33.3391 -14.6011 0.000145936 1 
44285 1 12.7544 30.2343 -14.8711 0.000108399 1 
44328 1 15.5069 31.0103 -14.8083 0.000105305 1 
44331 1 18.2607 31.7872 -14.7414 0.000100965 1 
44382 1 21.0131 32.5635 -14.6699 8.87668e-05 1 
44385 1 23.7639 33.3391 -14.6011 0.000145936 1 
46625 1 27.635 30.2343 -14.8711 0.000108399 1 
46628 1 30.3876 31.0103 -14.8083 0.000105305 1 
46697 1 33.1414 31.7872 -14.7414 0.000100965 1 
46700 1 35.8938 32.5635 -14.6699 8.87668e-05 1 
46771 1 38.6445 33.3391 -14.6011 0.000145936 1 
49029 1 42.5157 30.2343 -14.8711 0.000108399 1 
39905 1 2.26148 35.6687 -14.4088 0.000102947 1 
39908 1 5.01509 36.4447 -14.3386 0.000119722 1 
39937 1 7.76682 37.2212 -14.2696 0.000203321 1 
42113 1 11.6342 34.1152 -14.5382 0.000125358 1 
39940 1 10.5188 37.999 -14.2067 0.000153035 1 
42154 1 14.3875 34.8921 -14.4762 0.000132946 1 
42157 1 17.1421 35.6687 -14.4088 0.000102947 1 
42205 1 19.8957 36.4447 -14.3386 0.000119722 1 
42208 1 22.6475 37.2212 -14.2696 0.000203321 1 
44444 1 26.5148 34.1152 -14.5382 0.000125358 1 
42263 1 25.3994 37.999 -14.2067 0.000153035 1 
44447 1 29.2681 34.8921 -14.4762 0.000132946 1 
44514 1 32.0228 35.6687 -14.4088 0.000102947 1 
44517 1 34.7764 36.4447 -14.3386 0.000119722 1 
44586 1 37.5281 37.2212 -14.2696 0.000203321 1 
46774 1 41.3955 34.1152 -14.5382 0.000125358 1 
46845 1 44.1488 34.8921 -14.4762 0.000132946 1 
44589 1 40.2801 37.999 -14.2067 0.000153035 1 
37672 1 1.14804 39.5545 -14.0774 0.00015772 1 
39977 1 13.2731 38.777 -14.1433 0.00012538 1 
39980 1 16.0287 39.5545 -14.0774 0.00015772 1 
42266 1 28.1537 38.777 -14.1433 0.00012538 1 
42329 1 30.9093 39.5545 -14.0774 0.00015772 1 
44658 1 43.0344 38.777 -14.1433 0.00012538 1 
33260 1 0.875064 45.9115 -14.9423 0.00010638 1 
35544 1 15.7557 45.9115 -14.9423 0.00010638 1 
37913 1 30.6364 45.9115 -14.9423 0.00010638 1 
31111 1 2.53426 50.5776 -14.5024 0.000156264 1 
33285 1 3.6315 46.6891 -14.8701 8.6294e-05 1 
33288 1 6.3881 47.4668 -14.7975 0.000108485 1 
33321 1 9.1448 48.2453 -14.7236 0.000135641 1 
33324 1 11.9012 49.0236 -14.6489 0.000148783 1 
33365 1 14.6577 49.801 -14.5747 0.000151244 1 
33368 1 17.4149 50.5776 -14.5024 0.000156264 1 
35547 1 18.5122 46.6891 -14.8701 8.6294e-05 1 
35598 1 21.2688 47.4668 -14.7975 0.000108485 1 
35601 1 24.0254 48.2453 -14.7236 0.000135641 1 
35660 1 26.7819 49.0236 -14.6489 0.000148783 1 
35663 1 29.5383 49.801 -14.5747 0.000151244 1 
35730 1 32.2956 50.5776 -14.5024 0.000156264 1 
37982 1 33.3928 46.6891 -14.8701 8.6294e-05 1 
37985 1 36.1494 47.4668 -14.7975 0.000108485 1 
38056 1 38.9061 48.2453 -14.7236 0.000135641 1 
38059 1 41.6625 49.0236 -14.6489 0.000148783 1 
38130 1 44.419 49.801 -14.5747 0.000151244 1 
28939 1 1.44204 54.4559 -14.129 0.000107643 1 
31114 1 5.29247 51.354 -14.4285 0.000147808 1 
31144 1 8.05042 52.13 -14.3519 0.000146602 1 
31147 1 10.8076 52.9053 -14.2743 0.000192792 1 
31184 1 13.5646 53.6805 -14.2007 0.000144925 1 
31187 1 16.3227 54.4559 -14.129 0.000107643 1 
33417 1 20.1731 51.354 -14.4285 0.000147808 1 
33420 1 22.9311 52.13 -14.3519 0.000146602 1 
33475 1 25.6882 52.9053 -14.2743 0.000192792 1 
33478 1 28.4452 53.6805 -14.2007 0.000144925 1 
33541 1 31.2033 54.4559 -14.129 0.000107643 1 
35733 1 35.0538 51.354 -14.4285 0.000147808 1 
35804 1 37.8117 52.13 -14.3519 0.000146602 1 
35807 1 40.5689 52.9053 -14.2743 0.000192792 1 
35878 1 43.3259 53.6805 -14.2007 0.000144925 1 
28942 1 4.20132 55.2314 -14.0555 0.000105467 1 
31232 1 19.082 55.2314 -14.0555 0.000105467 1 
33544 1 33.9626 55.2314 -14.0555 0.000105467 1 
26710 1 1.19178 60.784 -14.9775 4.5772e-05 1 
26737 1 3.95105 61.559 -14.9057 5.1761e-05 1 
26740 1 6.70965 62.3339 -14.8335 9.84882e-05 1 
26775 1 9.46801 63.1098 -14.7642 5.61875e-05 1 
29051 1 16.0724 60.784 -14.9775 4.5772e-05 1 
29054 1 18.8317 61.559 -14.9057 5.1761e-05 1 
29105 1 21.5903 62.3339 -14.8335 9.84882e-05 1 
29108 1 24.3487 63.1098 -14.7642 5.61875e-05 1 
31353 1 30.9531 60.784 -14.9775 4.5772e-05 1 
31421 1 33.7123 61.559 -14.9057 5.1761e-05 1 
31424 1 36.471 62.3339 -14.8335 9.84882e-05 1 
31493 1 39.2293 63.1098 -14.7642 5.61875e-05 1 
24475 1 0.105396 64.6624 -14.6246 5.62678e-05 1 
24500 1 2.86457 65.4383 -14.5538 5.95198e-05 1 
24503 1 5.62337 66.2144 -14.4831 6.65425e-05 1 
24536 1 8.38226 66.9911 -14.4122 6.60582e-05 1 
26778 1 12.2269 63.8861 -14.6944 4.97665e-05 1 
26821 1 14.986 64.6624 -14.6246 5.62678e-05 1 
26824 1 17.7452 65.4383 -14.5538 5.95198e-05 1 
26875 1 20.504 66.2144 -14.4831 6.65425e-05 1 
26878 1 23.2629 66.9911 -14.4122 6.60582e-05 1 
29167 1 27.1075 63.8861 -14.6944 4.97665e-05 1 
29170 1 29.8667 64.6624 -14.6246 5.62678e-05 1 
29237 1 32.6259 65.4383 -14.5538 5.95198e-05 1 
29240 1 35.3847 66.2144 -14.4831 6.65425e-05 1 
29309 1 38.1436 66.9911 -14.4122 6.60582e-05 1 
31496 1 41.9882 63.8861 -14.6944 4.97665e-05 1 
22328 1 1.77742 69.3232 -14.1987 6.21355e-05 1 
22331 1 4.53584 70.0996 -14.1279 6.46172e-05 1 
22360 1 7.2948 70.8765 -14.057 8.56185e-05 1 
24539 1 11.1411 67.7686 -14.3416 7.67559e-05 1 
24578 1 13.8998 68.5462 -14.2701 6.80942e-05 1 
24581 1 16.6581 69.3232 -14.1987 6.21355e-05 1 
24628 1 19.4165 70.0996 -14.1279 6.46172e-05 1 
24631 1 22.1755 70.8765 -14.057 8.56185e-05 1 
26936 1 26.0218 67.7686 -14.3416 7.67559e-05 1 
26939 1 28.7805 68.5462 -14.2701 6.80942e-05 1 
27004 1 31.5387 69.3232 -14.1987 6.21355e-05 1 
27007 1 34.2971 70.0996 -14.1279 6.46172e-05 1 
27078 1 37.0561 70.8765 -14.057 8.56185e-05 1 
29312 1 40.9024 67.7686 -14.3416 7.67559e-05 1 
29381 1 43.6611 68.5462 -14.2701 6.80942e-05 1 
15750 1 0.40756 79.5442 -14.6857 6.19957e-05 1 
18009 1 4.26715 76.4414 -14.9768 6.10458e-05 1 
18012 1 7.02465 77.218 -14.904 0.000107485 1 
18045 1 9.78038 77.994 -14.8277 0.000111071 1 
18048 1 12.5343 78.769 -14.754 0.000119819 1 
18089 1 15.2882 79.5442 -14.6857 6.19957e-05 1 
20271 1 19.1478 76.4414 -14.9768 6.10458e-05 1 
20322 1 21.9053 77.218 -14.904 0.000107485 1 
20325 1 24.661 77.994 -14.8277 0.000111071 1 
20384 1 27.4149 78.769 -14.754 0.000119819 1 
20387 1 30.1689 79.5442 -14.6857 6.19957e-05 1 
22637 1 34.0285 76.4414 -14.9768 6.10458e-05 1 
22640 1 36.7859 77.218 -14.904 0.000107485 1 
22709 1 39.5417 77.994 -14.8277 0.000111071 1 
22712 1 42.2956 78.769 -14.754 0.000119819 1 
13534 1 2.05134 84.196 -14.2637 7.9573e-05 1 
15775 1 3.16321 80.3199 -14.618 7.72996e-05 1 
15778 1 5.91954 81.0953 -14.5455 9.91562e-05 1 
15811 1 8.67405 81.8701 -14.4694 0.000128368 1 
15814 1 11.4262 82.645 -14.3965 0.000157339 1 
15854 1 14.1781 83.4205 -14.3298 7.24679e-05 1 
15857 1 16.932 84.196 -14.2637 7.9573e-05 1 
18092 1 18.0439 80.3199 -14.618 7.72996e-05 1 
18141 1 20.8002 81.0953 -14.5455 9.91562e-05 1 
18144 1 23.5547 81.8701 -14.4694 0.000128368 1 
18201 1 26.3068 82.645 -14.3965 0.000157339 1 
18204 1 29.0588 83.4205 -14.3298 7.24679e-05 1 
18267 1 31.8126 84.196 -14.2637 7.9573e-05 1 
20454 1 32.9245 80.3199 -14.618 7.72996e-05 1 
20457 1 35.6808 81.0953 -14.5455 9.91562e-05 1 
20526 1 38.4353 81.8701 -14.4694 0.000128368 1 
20529 1 41.1875 82.645 -14.3965 0.000157339 1 
20598 1 43.9394 83.4205 -14.3298 7.24679e-05 1 
13537 1 4.80621 84.9707 -14.1943 9.56436e-05 1 
13566 1 7.55989 85.7448 -14.1212 0.000115569 1 
13569 1 10.3113 86.5193 -14.0488 0.000130017 1 
15904 1 19.6869 84.9707 -14.1943 9.56436e-05 1 
15907 1 22.4405 85.7448 -14.1212 0.000115569 1 
15962 1 25.1919 86.5193 -14.0488 0.000130017 1 
18270 1 34.5675 84.9707 -14.1943 9.56436e-05 1 
18339 1 37.3212 85.7448 -14.1212 0.000115569 1 
18342 1 40.0726 86.5193 -14.0488 0.000130017 1 
11429 1 10.0036 92.8518 -14.9364 9.09125e-05 1 
13711 1 24.8843 92.8518 -14.9364 9.09125e-05 1 
16173 1 39.7649 92.8518 -14.9364 9.09125e-05 1 
9196 1 0.626264 94.4028 -14.8083 0.000105305 1 
9221 1 3.38007 95.1797 -14.7414 0.000100965 1 
9224 1 6.13246 95.956 -14.6699 8.87668e-05 1 
9257 1 8.88323 96.7316 -14.6011 0.000145936 1 
11432 1 12.7544 93.6268 -14.8711 0.000108399 1 
11475 1 15.5069 94.4028 -14.8083 0.000105305 1 
11478 1 18.2607 95.1797 -14.7414 0.000100965 1 
11529 1 21.0131 95.956 -14.6699 8.87668e-05 1 
11532 1 23.7639 96.7316 -14.6011 0.000145936 1 
13772 1 27.635 93.6268 -14.8711 0.000108399 1 
13775 1 30.3876 94.4028 -14.8083 0.000105305 1 
13844 1 33.1414 95.1797 -14.7414 0.000100965 1 
13847 1 35.8938 95.956 -14.6699 8.87668e-05 1 
13918 1 38.6445 96.7316 -14.6011 0.000145936 1 
16176 1 42.5157 93.6268 -14.8711 0.000108399 1 
7053 1 2.26148 99.0612 -14.4088 0.000102947 1 
7056 1 5.01509 99.8372 -14.3386 0.000119722 1 
7085 1 7.76682 100.614 -14.2696 0.000203321 1 
7088 1 10.5188 101.392 -14.2067 0.000153035 1 
9260 1 11.6342 97.5077 -14.5382 0.000125358 1 
9301 1 14.3875 98.2847 -14.4762 0.000132946 1 
9304 1 17.1421 99.0612 -14.4088 0.000102947 1 
9352 1 19.8957 99.8372 -14.3386 0.000119722 1 
9355 1 22.6475 100.614 -14.2696 0.000203321 1 
9410 1 25.3994 101.392 -14.2067 0.000153035 1 
11591 1 26.5148 97.5077 -14.5382 0.000125358 1 
11594 1 29.2681 98.2847 -14.4762 0.000132946 1 
11661 1 32.0228 99.0612 -14.4088 0.000102947 1 
11664 1 34.7764 99.8372 -14.3386 0.000119722 1 
11733 1 37.5281 100.614 -14.2696 0.000203321 1 
11736 1 40.2801 101.392 -14.2067 0.000153035 1 
13921 1 41.3955 97.5077 -14.5382 0.000125358 1 
13992 1 44.1488 98.2847 -14.4762 0.000132946 1 
4893 1 1.14804 102.947 -14.0774 0.00015772 1 
7125 1 13.2731 102.17 -14.1433 0.00012538 1 
7128 1 16.0287 102.947 -14.0774 0.00015772 1 
9413 1 28.1537 102.17 -14.1433 0.00012538 1 
9476 1 30.9093 102.947 -14.0774 0.00015772 1 
11805 1 43.0344 102.17 -14.1433 0.00012538 1 
1536 1 0.875064 109.304 -14.9423 0.000106381 1 
3098 1 15.7557 109.304 -14.9423 0.000106381 1 
5134 1 30.6364 109.304 -14.9423 0.000106381 1 
635 1 2.53426 113.97 -14.5024 0.000156264 1 
1561 1 3.6315 110.082 -14.8701 8.6294e-05 1 
1564 1 6.3881 110.859 -14.7975 0.000108485 1 
1597 1 9.1448 111.638 -14.7236 0.000135641 1 
1600 1 11.9012 112.416 -14.6489 0.000148783 1 
1641 1 14.6577 113.194 -14.5747 0.000151244 1 
1644 1 17.4149 113.97 -14.5024 0.000156264 1 
3101 1 18.5122 110.082 -14.8701 8.6294e-05 1 
3152 1 21.2688 110.859 -14.7975 0.000108485 1 
3155 1 24.0254 111.638 -14.7236 0.000135641 1 
3214 1 26.7819 112.416 -14.6489 0.000148783 1 
3217 1 29.5383 113.194 -14.5747 0.000151244 1 
3284 1 32.2956 113.97 -14.5024 0.000156264 1 
5203 1 33.3928 110.082 -14.8701 8.6294e-05 1 
5206 1 36.1494 110.859 -14.7975 0.000108485 1 
5277 1 38.9061 111.638 -14.7236 0.000135641 1 
5280 1 41.6625 112.416 -14.6489 0.000148783 1 
5351 1 44.419 113.194 -14.5747 0.000151244 1 
185 1 1.44204 117.848 -14.129 0.000107643 1 
638 1 5.29247 114.747 -14.4285 0.000147808 1 
668 1 8.05042 115.522 -14.3519 0.000146602 1 
671 1 10.8076 116.298 -14.2743 0.000192792 1 
708 1 13.5646 117.073 -14.2007 0.000144925 1 
711 1 16.3227 117.848 -14.129 0.000107643 1 
1693 1 20.1731 114.747 -14.4285 0.000147808 1 
1696 1 22.9311 115.522 -14.3519 0.000146602 1 
1751 1 25.6882 116.298 -14.2743 0.000192792 1 
1754 1 28.4452 117.073 -14.2007 0.000144925 1 
1817 1 31.2033 117.848 -14.129 0.000107643 1 
3287 1 35.0538 114.747 -14.4285 0.000147808 1 
3358 1 37.8117 115.522 -14.3519 0.000146602 1 
3361 1 40.5689 116.298 -14.2743 0.000192792 1 
3432 1 43.3259 117.073 -14.2007 0.000144925 1 
188 1 4.20132 118.624 -14.0555 0.000105467 1 
756 1 19.082 118.624 -14.0555 0.000105467 1 
1820 1 33.9626 118.624 -14.0555 0.000105467 1 
32 1 1.19178 124.176 -14.9775 4.5772e-05 1 
58 1 3.95105 124.951 -14.9057 5.1761e-05 1 
61 1 6.70965 125.726 -14.8335 9.84882e-05 1 
89 1 9.46801 126.502 -14.7642 5.61875e-05 1 
297 1 16.0724 124.176 -14.9775 4.5772e-05 1 
300 1 18.8317 124.951 -14.9057 5.1761e-05 1 
348 1 21.5903 125.726 -14.8335 9.84882e-05 1 
351 1 24.3487 126.502 -14.7642 5.61875e-05 1 
877 1 30.9531 124.176 -14.9775 4.5772e-05 1 
945 1 33.7123 124.951 -14.9057 5.1761e-05 1 
948 1 36.471 125.726 -14.8335 9.84882e-05 1 
1015 1 39.2293 126.502 -14.7642 5.61875e-05 1 
55162 1 0.944745 3.46844 -12.9881 9.33718e-05 1 
55163 1 0.950081 3.20594 -10.1415 0.000270134 1 
55166 1 3.71068 3.98163 -10.0725 0.000327561 1 
57324 1 0.107089 1.00603 -11.7741 0.000176471 1 
57325 1 2.86796 1.78149 -11.7034 0.000161507 1 
57327 1 4.78881 0.0941345 -10.4121 0.000637529 1 
57346 1 4.78812 0.360537 -13.2669 0.000136284 1 
57348 1 5.6278 2.55758 -11.6339 0.000196313 1 
57349 1 7.54691 1.13667 -13.1972 0.000133554 1 
57350 1 7.54743 0.87087 -10.3453 0.000743609 1 
57351 1 8.38808 3.33452 -11.5625 0.000172908 1 
57353 1 10.308 1.6492 -10.2746 0.000350285 1 
57382 1 10.3062 1.91385 -13.1272 9.10029e-05 1 
57384 1 11.1483 4.11352 -11.4937 0.000242889 1 
57385 1 13.0657 2.69143 -13.0584 0.000109786 1 
57386 1 13.0689 2.42854 -10.2108 0.000438747 1 
59541 1 12.2272 0.229565 -11.8411 0.00013622 1 
57389 1 15.8307 3.20594 -10.1415 0.000270134 1 
57424 1 15.8254 3.46844 -12.9881 9.33718e-05 1 
59542 1 14.9877 1.00603 -11.7741 0.000176471 1 
59562 1 17.7486 1.78149 -11.7034 0.000161507 1 
57428 1 18.5913 3.98163 -10.0725 0.000327561 1 
59563 1 19.6688 0.360537 -13.2669 0.000136284 1 
59564 1 19.6695 0.0941345 -10.4121 0.000637529 1 
59565 1 20.5084 2.55758 -11.6339 0.000196313 1 
59567 1 22.4281 0.87087 -10.3453 0.000743609 1 
59599 1 22.4276 1.13667 -13.1972 0.000133554 1 
59601 1 23.2687 3.33452 -11.5625 0.000172908 1 
59602 1 25.1868 1.91385 -13.1272 9.10029e-05 1 
59603 1 25.1886 1.6492 -10.2746 0.000350285 1 
59604 1 26.0289 4.11352 -11.4937 0.000242889 1 
59606 1 27.9496 2.42854 -10.2108 0.000438747 1 
59649 1 27.9464 2.69143 -13.0584 0.000109786 1 
59652 1 30.706 3.46844 -12.9881 9.33718e-05 1 
59653 1 30.7114 3.20594 -10.1415 0.000270134 1 
61611 1 27.1078 0.229565 -11.8411 0.00013622 1 
61626 1 29.8684 1.00603 -11.7741 0.000176471 1 
59656 1 33.472 3.98163 -10.0725 0.000327561 1 
61627 1 32.6293 1.78149 -11.7034 0.000161507 1 
61629 1 34.5501 0.0941345 -10.4121 0.000637529 1 
61654 1 34.5494 0.360537 -13.2669 0.000136284 1 
61656 1 35.3891 2.55758 -11.6339 0.000196313 1 
61657 1 37.3082 1.13667 -13.1972 0.000133554 1 
61658 1 37.3087 0.87087 -10.3453 0.000743609 1 
61659 1 38.1494 3.33452 -11.5625 0.000172908 1 
61661 1 40.0693 1.6492 -10.2746 0.000350285 1 
61693 1 40.0675 1.91385 -13.1272 9.10029e-05 1 
61695 1 40.9096 4.11352 -11.4937 0.000242889 1 
61696 1 42.827 2.69143 -13.0584 0.000109786 1 
61697 1 42.8302 2.42854 -10.2108 0.000438747 1 
63333 1 41.9885 0.229565 -11.8411 0.00013622 1 
53011 1 2.61812 8.13227 -12.5579 0.000121461 1 
55164 1 1.78719 5.67027 -11.3511 0.000173056 1 
55183 1 3.70397 4.24483 -12.9177 0.00010078 1 
55185 1 4.54695 6.44609 -11.2812 0.000172189 1 
55186 1 6.46363 5.02131 -12.847 0.000104175 1 
55187 1 6.4728 4.75713 -10.0013 0.000285222 1 
55188 1 7.30787 7.22327 -11.2115 0.000247642 1 
55216 1 10.0537 8.26163 -13.984 0.000113787 1 
55190 1 9.23449 5.53594 -9.93158 0.000481614 1 
55215 1 9.22335 5.79905 -12.7759 0.00014402 1 
55217 1 10.0694 8.0022 -11.1374 0.000345879 1 
55218 1 11.9828 6.57761 -12.7031 0.000154749 1 
55219 1 11.9967 6.3168 -9.85777 0.000502352 1 
55222 1 14.7561 7.09629 -9.78046 0.000412549 1 
55255 1 14.741 7.35554 -12.6293 0.000125842 1 
55258 1 17.4988 8.13227 -12.5579 0.000121461 1 
57387 1 13.9086 4.89264 -11.4221 0.000178857 1 
57426 1 16.6678 5.67027 -11.3511 0.000173056 1 
57427 1 18.5846 4.24483 -12.9177 0.00010078 1 
57429 1 19.4276 6.44609 -11.2812 0.000172189 1 
57431 1 21.3535 4.75713 -10.0013 0.000285222 1 
57474 1 21.3443 5.02131 -12.847 0.000104175 1 
57476 1 22.1885 7.22327 -11.2115 0.000247642 1 
57530 1 24.9344 8.26163 -13.984 0.000113787 1 
57477 1 24.104 5.79905 -12.7759 0.00014402 1 
57478 1 24.1151 5.53594 -9.93158 0.000481614 1 
57479 1 24.95 8.0022 -11.1374 0.000345879 1 
57481 1 26.8773 6.3168 -9.85777 0.000502352 1 
57532 1 26.8635 6.57761 -12.7031 0.000154749 1 
57535 1 29.6216 7.35554 -12.6293 0.000125842 1 
57536 1 29.6367 7.09629 -9.78046 0.000412549 1 
59651 1 28.7893 4.89264 -11.4221 0.000178857 1 
57598 1 32.3794 8.13227 -12.5579 0.000121461 1 
59654 1 31.5485 5.67027 -11.3511 0.000173056 1 
59709 1 33.4653 4.24483 -12.9177 0.00010078 1 
59711 1 34.3082 6.44609 -11.2812 0.000172189 1 
59778 1 39.815 8.26163 -13.984 0.000113787 1 
59712 1 36.2249 5.02131 -12.847 0.000104175 1 
59713 1 36.2341 4.75713 -10.0013 0.000285222 1 
59714 1 37.0692 7.22327 -11.2115 0.000247642 1 
59716 1 38.9958 5.53594 -9.93158 0.000481614 1 
59777 1 38.9847 5.79905 -12.7759 0.00014402 1 
59779 1 39.8307 8.0022 -11.1374 0.000345879 1 
59780 1 41.7441 6.57761 -12.7031 0.000154749 1 
59781 1 41.758 6.3168 -9.85777 0.000502352 1 
59784 1 44.5174 7.09629 -9.78046 0.000412549 1 
59847 1 44.5023 7.35554 -12.6293 0.000125842 1 
61698 1 43.6699 4.89264 -11.4221 0.000178857 1 
50838 1 1.52636 12.0152 -12.1909 0.000221748 1 
52994 1 0.703621 9.55774 -10.9835 0.000271334 1 
53009 1 0.687034 9.81553 -13.8362 8.7256e-05 1 
53012 1 3.44424 10.5914 -13.7659 7.96516e-05 1 
53013 1 3.46118 10.3326 -10.9134 0.00054518 1 
53014 1 5.37708 8.90871 -12.4887 0.000159772 1 
53016 1 6.22324 11.1104 -10.8495 0.000555903 1 
53039 1 6.20307 11.3683 -13.6962 0.000136311 1 
53041 1 8.13766 9.68622 -12.4167 0.000226003 1 
55253 1 12.8112 9.03906 -13.9093 0.000107487 1 
53042 1 8.9612 12.1457 -13.6207 0.000179956 1 
53043 1 8.98412 11.8894 -10.7701 0.000714997 1 
53044 1 10.8961 10.4644 -12.339 0.000299235 1 
53046 1 11.7384 12.6664 -10.683 0.000887029 1 
55220 1 12.8281 8.78094 -11.0591 0.00032322 1 
53079 1 13.6513 11.2407 -12.2616 0.00022276 1 
53082 1 16.407 12.0152 -12.1909 0.000221748 1 
55256 1 15.5677 9.81553 -13.8362 8.7256e-05 1 
55257 1 15.5843 9.55774 -10.9835 0.000271334 1 
55260 1 18.3418 10.3326 -10.9134 0.00054518 1 
55301 1 18.3249 10.5914 -13.7659 7.96516e-05 1 
55303 1 20.2577 8.90871 -12.4887 0.000159772 1 
55304 1 21.0837 11.3683 -13.6962 0.000136311 1 
55305 1 21.1039 11.1104 -10.8495 0.000555903 1 
55306 1 23.0183 9.68622 -12.4167 0.000226003 1 
55308 1 23.8648 11.8894 -10.7701 0.000714997 1 
55357 1 23.8419 12.1457 -13.6207 0.000179956 1 
55359 1 25.7768 10.4644 -12.339 0.000299235 1 
55361 1 26.6191 12.6664 -10.683 0.000887029 1 
57533 1 27.6919 9.03906 -13.9093 0.000107487 1 
55362 1 28.532 11.2407 -12.2616 0.00022276 1 
57534 1 27.7088 8.78094 -11.0591 0.00032322 1 
57537 1 30.4649 9.55774 -10.9835 0.000271334 1 
57596 1 30.4483 9.81553 -13.8362 8.7256e-05 1 
55423 1 31.2877 12.0152 -12.1909 0.000221748 1 
57599 1 33.2055 10.5914 -13.7659 7.96516e-05 1 
57600 1 33.2225 10.3326 -10.9134 0.00054518 1 
57601 1 35.1384 8.90871 -12.4887 0.000159772 1 
57603 1 35.9845 11.1104 -10.8495 0.000555903 1 
57669 1 35.9644 11.3683 -13.6962 0.000136311 1 
57671 1 37.899 9.68622 -12.4167 0.000226003 1 
57672 1 38.7225 12.1457 -13.6207 0.000179956 1 
57673 1 38.7454 11.8894 -10.7701 0.000714997 1 
59845 1 42.5725 9.03906 -13.9093 0.000107487 1 
57674 1 40.6574 10.4644 -12.339 0.000299235 1 
57676 1 41.4997 12.6664 -10.683 0.000887029 1 
57745 1 43.4126 11.2407 -12.2616 0.00022276 1 
59782 1 42.5894 8.78094 -11.0591 0.00032322 1 
48604 1 0.424252 15.8954 -11.8281 0.000191475 1 
48607 1 3.1808 16.6721 -11.765 0.000365515 1 
50839 1 2.34566 14.472 -13.4044 8.88476e-05 1 
50840 1 2.36582 14.2144 -10.5523 0.000405699 1 
50841 1 4.28448 12.7914 -12.1259 0.000233594 1 
50843 1 5.12675 14.993 -10.4862 0.00129078 1 
50864 1 5.10343 15.2486 -13.3347 0.000198843 1 
50866 1 7.04441 13.57 -12.0519 0.000496823 1 
50867 1 7.86021 16.0248 -13.2561 0.000235939 1 
50868 1 7.88498 15.7706 -10.3944 0.0013819 1 
50869 1 9.80007 14.3466 -11.9689 0.000330479 1 
50871 1 10.6363 16.5452 -10.3133 0.000591639 1 
50900 1 10.6134 16.7998 -13.1791 0.000215543 1 
50902 1 12.5523 15.1205 -11.8921 0.000445859 1 
53077 1 11.7165 12.9219 -13.5428 0.000201384 1 
50905 1 15.3049 15.8954 -11.8281 0.000191475 1 
53080 1 14.4707 13.6967 -13.4711 0.000133497 1 
53081 1 14.4912 13.4397 -10.6124 0.000471159 1 
53084 1 17.2465 14.2144 -10.5523 0.000405699 1 
53123 1 17.2263 14.472 -13.4044 8.88476e-05 1 
50946 1 18.0615 16.6721 -11.765 0.000365515 1 
53125 1 19.1651 12.7914 -12.1259 0.000233594 1 
53126 1 19.9841 15.2486 -13.3347 0.000198843 1 
53127 1 20.0074 14.993 -10.4862 0.00129078 1 
53128 1 21.9251 13.57 -12.0519 0.000496823 1 
53130 1 22.7656 15.7706 -10.3944 0.0013819 1 
53177 1 22.7409 16.0248 -13.2561 0.000235939 1 
53179 1 24.6807 14.3466 -11.9689 0.000330479 1 
53180 1 25.4941 16.7998 -13.1791 0.000215543 1 
53181 1 25.5169 16.5452 -10.3133 0.000591639 1 
55360 1 26.5972 12.9219 -13.5428 0.000201384 1 
53182 1 27.4329 15.1205 -11.8921 0.000445859 1 
53241 1 30.1856 15.8954 -11.8281 0.000191475 1 
55364 1 29.3718 13.4397 -10.6124 0.000471159 1 
55421 1 29.3514 13.6967 -13.4711 0.000133497 1 
53244 1 32.9421 16.6721 -11.765 0.000365515 1 
55424 1 32.107 14.472 -13.4044 8.88476e-05 1 
55425 1 32.1271 14.2144 -10.5523 0.000405699 1 
55426 1 34.0458 12.7914 -12.1259 0.000233594 1 
55428 1 34.888 14.993 -10.4862 0.00129078 1 
55492 1 34.8647 15.2486 -13.3347 0.000198843 1 
55494 1 36.8057 13.57 -12.0519 0.000496823 1 
55495 1 37.6215 16.0248 -13.2561 0.000235939 1 
55496 1 37.6463 15.7706 -10.3944 0.0013819 1 
55497 1 39.5614 14.3466 -11.9689 0.000330479 1 
55499 1 40.3976 16.5452 -10.3133 0.000591639 1 
55564 1 40.3747 16.7998 -13.1791 0.000215543 1 
55566 1 42.3136 15.1205 -11.8921 0.000445859 1 
57743 1 41.4778 12.9219 -13.5428 0.000201384 1 
57746 1 44.232 13.6967 -13.4711 0.000133497 1 
57747 1 44.2525 13.4397 -10.6124 0.000471159 1 
46370 1 2.06509 20.5496 -11.4068 0.000249794 1 
48605 1 1.23773 18.3503 -13.0456 0.000117924 1 
48606 1 1.25597 18.0965 -10.192 0.000713247 1 
48609 1 4.0139 18.8729 -10.1224 0.000516142 1 
48630 1 3.99373 19.1258 -12.9769 0.000151303 1 
48632 1 5.93897 17.448 -11.6895 0.000379493 1 
48633 1 6.74925 19.9 -12.9022 0.000180233 1 
48634 1 6.77141 19.6461 -10.0431 0.000730363 1 
48635 1 8.69317 18.2219 -11.6059 0.000447439 1 
48637 1 9.52084 20.418 -9.95716 0.000516809 1 
48666 1 9.50121 20.6739 -12.8252 0.000205184 1 
48668 1 11.4426 18.997 -11.5301 0.00064577 1 
50903 1 13.3649 17.5745 -13.1096 0.000149448 1 
50904 1 13.3839 17.3187 -10.2469 0.000604684 1 
48671 1 14.1918 19.7734 -11.4694 0.000255978 1 
48711 1 16.9457 20.5496 -11.4068 0.000249794 1 
50907 1 16.1366 18.0965 -10.192 0.000713247 1 
50944 1 16.1184 18.3503 -13.0456 0.000117924 1 
50947 1 18.8744 19.1258 -12.9769 0.000151303 1 
50948 1 18.8945 18.8729 -10.1224 0.000516142 1 
50949 1 20.8196 17.448 -11.6895 0.000379493 1 
50951 1 21.6521 19.6461 -10.0431 0.000730363 1 
50996 1 21.6299 19.9 -12.9022 0.000180233 1 
50998 1 23.5738 18.2219 -11.6059 0.000447439 1 
50999 1 24.3819 20.6739 -12.8252 0.000205184 1 
51000 1 24.4015 20.418 -9.95716 0.000516809 1 
51001 1 26.3232 18.997 -11.5301 0.00064577 1 
51058 1 29.0724 19.7734 -11.4694 0.000255978 1 
53184 1 28.2645 17.3187 -10.2469 0.000604684 1 
53239 1 28.2455 17.5745 -13.1096 0.000149448 1 
53242 1 30.999 18.3503 -13.0456 0.000117924 1 
53243 1 31.0173 18.0965 -10.192 0.000713247 1 
51061 1 31.8264 20.5496 -11.4068 0.000249794 1 
53246 1 33.7752 18.8729 -10.1224 0.000516142 1 
53309 1 33.755 19.1258 -12.9769 0.000151303 1 
53311 1 35.7003 17.448 -11.6895 0.000379493 1 
53312 1 36.5105 19.9 -12.9022 0.000180233 1 
53313 1 36.5327 19.6461 -10.0431 0.000730363 1 
53314 1 38.4545 18.2219 -11.6059 0.000447439 1 
53316 1 39.2821 20.418 -9.95716 0.000516809 1 
53381 1 39.2625 20.6739 -12.8252 0.000205184 1 
53383 1 41.2039 18.997 -11.5301 0.00064577 1 
53386 1 43.9531 19.7734 -11.4694 0.000255978 1 
55567 1 43.1262 17.5745 -13.1096 0.000149448 1 
55568 1 43.1452 17.3187 -10.2469 0.000604684 1 
44216 1 0.932739 24.6779 -13.917 8.47844e-05 1 
44201 1 0.939795 24.4232 -11.0584 0.00026039 1 
44220 1 3.69337 25.1986 -10.9919 0.00044369 1 
46368 1 0.121008 22.2255 -12.6916 0.000147242 1 
46369 1 0.133679 21.9728 -9.82996 0.000591597 1 
46389 1 2.8748 23.0011 -12.6273 0.00014062 1 
46391 1 4.82098 21.3239 -11.3379 0.000324288 1 
46392 1 5.62889 23.7754 -12.5575 0.000169025 1 
46394 1 7.57443 22.0965 -11.2595 0.000414513 1 
46421 1 8.38099 24.5491 -12.4848 0.000145119 1 
46459 1 13.0615 23.9021 -13.9809 0.000127297 1 
46423 1 10.3237 22.8701 -11.1837 0.000413579 1 
46426 1 13.0701 23.6458 -11.1163 0.0004402 1 
48669 1 12.2508 21.4491 -12.7544 0.000303904 1 
48670 1 12.266 21.1939 -9.88404 0.00171135 1 
46424 1 11.1297 25.3235 -12.4116 0.000405141 1 
46462 1 15.8134 24.6779 -13.917 8.47844e-05 1 
46463 1 15.8204 24.4232 -11.0584 0.00026039 1 
48673 1 15.0143 21.9728 -9.82996 0.000591597 1 
48709 1 15.0017 22.2255 -12.6916 0.000147242 1 
48712 1 17.7555 23.0011 -12.6273 0.00014062 1 
46466 1 18.574 25.1986 -10.9919 0.00044369 1 
48714 1 19.7016 21.3239 -11.3379 0.000324288 1 
48759 1 20.5095 23.7754 -12.5575 0.000169025 1 
48761 1 22.4551 22.0965 -11.2595 0.000414513 1 
48762 1 23.2616 24.5491 -12.4848 0.000145119 1 
48764 1 25.2044 22.8701 -11.1837 0.000413579 1 
48817 1 26.0104 25.3235 -12.4116 0.000405141 1 
48818 1 27.9421 23.9021 -13.9809 0.000127297 1 
48881 1 30.694 24.6779 -13.917 8.47844e-05 1 
48819 1 27.9507 23.6458 -11.1163 0.0004402 1 
48822 1 30.7011 24.4232 -11.0584 0.00026039 1 
51003 1 27.1467 21.1939 -9.88404 0.00171135 1 
51056 1 27.1314 21.4491 -12.7544 0.000303904 1 
51059 1 29.8823 22.2255 -12.6916 0.000147242 1 
51060 1 29.895 21.9728 -9.82996 0.000591597 1 
48885 1 33.4547 25.1986 -10.9919 0.00044369 1 
51122 1 32.6361 23.0011 -12.6273 0.00014062 1 
51124 1 34.5823 21.3239 -11.3379 0.000324288 1 
51125 1 35.3902 23.7754 -12.5575 0.000169025 1 
51127 1 37.3357 22.0965 -11.2595 0.000414513 1 
51194 1 38.1423 24.5491 -12.4848 0.000145119 1 
51196 1 40.085 22.8701 -11.1837 0.000413579 1 
51264 1 42.8228 23.9021 -13.9809 0.000127297 1 
51199 1 42.8314 23.6458 -11.1163 0.0004402 1 
53384 1 42.0121 21.4491 -12.7544 0.000303904 1 
53385 1 42.0273 21.1939 -9.88404 0.00171135 1 
51197 1 40.891 25.3235 -12.4116 0.000405141 1 
42051 1 2.56294 29.3298 -13.5161 0.000174222 1 
42052 1 2.56178 29.0716 -10.6662 0.0009101 1 
44218 1 1.74934 26.8744 -12.2861 0.000253549 1 
44219 1 3.68635 25.4533 -13.8504 0.000104501 1 
44221 1 4.50333 27.6507 -12.2214 0.000221626 1 
44223 1 6.44724 25.9737 -10.9247 0.00026164 1 
44246 1 6.43968 26.2286 -13.7814 9.5546e-05 1 