ITEM: TIMESTEP
0
ITEM: NUMBER OF ATOMS
22115
ITEM: BOX BOUNDS xy xz yz pp pp ss
-1.0437743740000001e+00 9.4287618487000003e+01 -1.0437743740000001e+00
0.0000000000000000e+00 1.3123084825999999e+02 0.0000000000000000e+00
-8.4677523954649629e+01 8.7086829684441810e+01 0.0000000000000000e+00
ITEM: ATOMS id type x y z c_csym c_cna 
127678 3 46.8327 30.0847 -0.210718 3.15579 5 
120196 2 43.6641 18.4045 0.969211 7.89453 5 
126597 2 8.41456 18.4752 0.789485 8.68074 5 
34088 1 46.5477 9.41232 -2.63405 6.24031 5 
127577 3 15.6983 0.995867 -0.21879 3.90636 5 
125832 2 5.66988 27.7793 -1.0759e-05 7.36189 5 
127711 3 10.1736 4.33313 0.140106 5.45839 5 
11167 1 44.1595 63.1885 -0.511873 1.94407 5 
106507 2 38.7819 62.4552 1.1049 7.58233 5 
37108 1 46.5206 13.8063 -11.0824 0.000880484 1 
13064 1 31.3747 64.0568 -1.20736 3.01299 5 
13065 1 28.3974 64.0217 -0.559912 6.22384 5 
13167 1 37.0561 63.8413 -3.28856 0.263729 1 
13168 1 34.2342 63.8638 -2.39501 1.01646 5 
13169 1 36.2438 63.9013 -0.645477 7.30325 5 
13170 1 34.8939 61.4807 -0.798726 9.53327 5 
13257 1 44.8082 65.5131 -7.73964 0.00443961 1 
30836 1 46.2454 18.7161 -4.04049 0.0351342 1 
13261 1 42.5127 63.4099 -5.17469 0.0426063 1 
13262 1 39.7936 63.6098 -4.19623 0.067517 1 
13263 1 41.9349 63.5511 -2.33946 0.524265 1 
13264 1 39.138 63.8678 -1.27983 4.18702 5 
13265 1 40.1333 61.3251 -2.60254 4.64264 5 
13266 1 37.5301 61.5841 -1.67221 6.60264 5 
13350 1 45.229 63.2063 -6.11065 0.0119941 1 
13352 1 44.6822 63.3452 -3.29663 0.258243 1 
13353 1 45.6664 60.8839 -4.5303 0.220824 1 
13354 1 42.9115 61.0932 -3.69346 0.733859 1 
13355 1 44.9646 60.9794 -1.89493 6.65207 5 
13356 1 42.2565 61.1239 -1.05912 11.0105 5 
13357 1 43.4954 58.6544 -1.73811 5.60284 5 
13358 1 40.9269 58.7728 -0.774061 8.92308 5 
13443 1 43.5728 56.2974 -0.160528 6.2411 5 
117589 2 11.7657 61.0353 1.00313 7.21384 5 
18530 1 46.2739 51.4998 -5.3297 0.0677721 1 
121784 2 46.8439 4.57035 0.976038 4.90442 5 
15070 1 16.5724 64.8487 -1.49054 9.51105 5 
15195 1 21.857 64.5577 -3.44281 0.784625 1 
15196 1 19.1055 64.7757 -2.38583 4.91093 5 
15197 1 19.9515 62.1964 -0.383168 8.56022 5 
15316 1 27.3415 64.1794 -5.13256 0.130485 1 
15317 1 24.5896 64.362 -4.29569 0.361361 1 
15318 1 26.5964 64.2506 -2.43457 1.62619 5 
15319 1 23.8471 64.4449 -1.63878 6.26052 5 
15320 1 25.0557 61.9922 -2.41199 5.06306 5 
15321 1 22.4298 62.142 -1.51463 5.72736 5 
15431 1 32.7573 63.8356 -6.96509 0.0100315 1 
15432 1 30.0516 64.0018 -6.0181 0.0177091 1 
15433 1 32.1583 63.9502 -4.14413 0.145207 1 
15434 1 29.4478 64.0928 -3.2136 0.435863 1 
15435 1 30.4457 61.6896 -4.34303 0.051921 1 
15436 1 27.7368 61.8636 -3.35202 0.502108 5 
15437 1 29.8107 61.7453 -1.39159 6.05454 5 
15438 1 26.9426 61.7603 -0.0555138 6.24937 5 
15439 1 28.1624 59.5623 -1.75388 1.33377 5 
15440 1 25.3757 59.6703 -0.828315 2.86814 5 
15539 1 38.17 63.4979 -8.89499 0.000946934 1 
15540 1 35.4647 63.6741 -7.93995 0.00250976 1 
15541 1 37.6368 63.6441 -6.08576 0.0138212 1 
15542 1 34.9183 63.8083 -5.14218 0.0581481 1 
15543 1 35.8796 61.3708 -6.31626 0.013583 1 
15544 1 33.1589 61.5396 -5.29817 0.0628483 1 
15545 1 35.3603 61.4879 -3.5444 0.191992 1 
15546 1 32.5605 61.6447 -2.39875 5.73419 5 
15547 1 33.6555 59.2279 -3.72022 0.139547 1 
15548 1 30.9287 59.3989 -2.73758 0.420403 1 
15549 1 33.3289 59.2734 -0.970652 6.25351 5 
15550 1 31.2091 57.0625 -1.1788 1.11851 5 
15551 1 28.4209 57.2057 -0.280223 4.72322 5 
15638 1 45.8341 65.2811 -13.3908 0.000109912 1 
15639 1 43.141 65.4512 -12.4378 0.000146869 1 
15640 1 45.3187 65.3978 -10.5708 0.000622652 1 
15641 1 42.6289 65.5717 -9.62059 0.0011627 1 
15642 1 43.5705 63.1438 -10.7969 0.000315715 1 
15643 1 40.8716 63.3195 -9.84642 0.000446805 1 
15644 1 43.0491 63.2711 -7.98582 0.00417058 1 
15645 1 40.3441 63.4524 -7.03074 0.00590248 1 
15646 1 41.2916 61.0159 -8.21232 0.00554597 1 
15647 1 38.5875 61.1969 -7.26391 0.00603378 1 
15648 1 40.7391 61.1573 -5.4134 0.0741916 1 
15649 1 38.0397 61.3582 -4.47784 0.064039 1 
15650 1 39.04 58.897 -5.59845 0.0267232 1 
15651 1 36.3524 59.0599 -4.66492 0.0444301 1 
15652 1 38.5797 59.0599 -2.7901 0.883633 5 
15653 1 35.9822 59.1429 -1.86781 1.55936 5 
15654 1 36.7468 56.7511 -3.00187 0.142649 1 
15655 1 34.0059 56.8891 -2.10381 0.317617 1 
15656 1 36.0006 56.8048 -0.136525 9.38514 5 
15657 1 34.3967 54.5905 -0.286217 6.94211 5 
15740 1 45.7475 63.089 -8.92865 0.00104735 1 
15742 1 43.9987 60.8348 -9.16178 0.00377562 1 
15744 1 43.4732 60.9595 -6.38752 0.061141 1 
15745 1 44.4271 58.5252 -7.495 0.00844673 1 
15746 1 41.7266 58.7158 -6.53536 0.0230379 1 
15747 1 43.9151 58.639 -4.65467 0.125982 1 
15748 1 41.2471 58.8569 -3.66367 0.401537 1 
15749 1 42.1366 56.4191 -4.90099 0.0304758 1 
15750 1 39.4388 56.6124 -3.95068 0.0761289 1 
15751 1 41.5556 56.4568 -2.08644 0.281398 1 
15752 1 38.7996 56.8982 -1.08649 2.63413 5 
15753 1 39.7217 54.3195 -2.34502 3.22099 5 
15754 1 37.1028 54.4263 -1.35162 6.32414 2 
15838 1 44.8456 56.2272 -5.85179 0.00748843 1 
15840 1 44.3084 56.3138 -3.03401 0.111729 1 
15841 1 45.2407 53.9147 -4.2593 0.12992 1 
15842 1 42.5031 54.0808 -3.33778 0.181279 1 
15843 1 44.5953 54.0197 -1.49491 6.43647 5 
15844 1 41.769 54.0602 -0.61512 6.37844 5 
15845 1 43.075 51.7516 -1.68925 7.07172 5 
15928 1 45.7651 51.6166 -2.45329 6.11481 5 
124752 2 1.89939 44.2056 1.11327 6.72531 5 
21490 1 43.9768 34.5547 -1.10053 11.4129 5 
17247 1 1.7546 65.5619 -1.28246 1.19969 5 
17368 1 6.90505 65.2526 -3.16834 0.0505161 1 
17369 1 4.29756 65.3375 -2.21718 0.25403 1 
17370 1 6.48457 65.3828 -0.367549 5.02466 5 
17371 1 4.75417 62.9307 -0.510565 6.13799 5 
17492 1 12.2275 64.9571 -5.05021 0.025289 1 
17493 1 9.55654 65.1238 -4.11014 0.0219602 1 
17494 1 11.7013 65.1446 -2.2419 5.55928 5 
17495 1 9.06507 65.2771 -1.29549 5.17981 5 
17496 1 10.0595 62.842 -2.45156 0.575782 5 
17497 1 7.39211 62.9434 -1.53103 0.681285 5 
17620 1 17.5995 64.6216 -7.00156 0.0183824 1 
17621 1 14.8923 64.7872 -5.99113 0.0393247 1 
17622 1 17.047 64.7582 -4.25102 0.229097 1 
17623 1 14.3636 64.8849 -3.09372 4.92182 5 
17624 1 15.3638 62.4829 -4.32188 0.179552 1 
17625 1 12.7308 62.661 -3.35687 0.451312 1 
17626 1 15.0864 62.414 -1.33163 8.28785 5 
17627 1 12.5235 63.145 -0.611063 5.86664 5 
17628 1 12.9298 60.4349 -1.65641 2.43468 5 
17629 1 10.086 60.5029 -0.874238 7.85651 5 
17748 1 23.0274 64.2715 -8.87147 0.00858045 1 
17749 1 20.311 64.4486 -7.94376 0.0114128 1 
17750 1 22.4671 64.4115 -6.12494 0.0891453 1 
17751 1 19.7365 64.595 -5.17574 0.10591 1 
17752 1 20.7363 62.1488 -6.2709 0.0309449 1 
17753 1 18.0439 62.3157 -5.34612 0.0499542 1 
17754 1 20.2256 62.3131 -3.40058 0.538836 1 
17755 1 17.5965 62.4566 -2.52773 1.27803 5 
17756 1 18.4489 60.0553 -3.70578 0.112269 1 
17757 1 15.7367 60.1726 -2.74489 0.664027 5 
17758 1 17.7654 60.3833 -0.771195 5.25617 5 
17759 1 16.2792 57.8974 -1.24746 7.93271 5 
17875 1 28.4335 63.9216 -10.7117 0.000898356 1 
17876 1 25.7356 64.0946 -9.78543 0.00316379 1 
17877 1 27.9022 64.0488 -7.90496 0.0100167 1 
17878 1 25.1934 64.2273 -7.00939 0.0359528 1 
17879 1 26.1533 61.7867 -8.13179 0.00533922 1 
17880 1 23.4481 61.9616 -7.21397 0.0116361 1 
17881 1 25.5994 61.9127 -5.30298 0.063041 1 
17882 1 22.9008 62.0898 -4.39606 0.148079 1 
17883 1 23.8713 59.6562 -5.57947 0.00528466 1 
17884 1 21.1569 59.8592 -4.66485 0.0304239 1 
17885 1 23.3055 59.7669 -2.7892 0.0807515 1 
17886 1 20.5699 59.9659 -1.87252 0.510014 1 
17887 1 21.5662 57.5148 -3.13497 0.147924 1 
17888 1 18.8439 57.7975 -2.17092 5.72431 5 
17889 1 20.9591 57.6616 -0.416083 10.2503 5 
17890 1 19.4534 55.499 -0.860369 10.8245 5 
17997 1 33.8221 63.583 -12.6093 0.000150036 1 
17998 1 31.1273 63.752 -11.6551 0.000281705 1 
17999 1 33.2948 63.7104 -9.78893 0.000824648 1 
18000 1 30.5989 63.8785 -8.834 0.00188814 1 
18001 1 31.5483 61.4489 -10.0112 0.000600352 1 
18002 1 28.8519 61.617 -9.06152 0.00245384 1 
18003 1 31.0084 61.5757 -7.18039 0.00411591 1 
18004 1 28.3007 61.7419 -6.2242 0.0245974 1 
18005 1 29.2735 59.3165 -7.42457 0.00136831 1 
18006 1 26.5734 59.4849 -6.49417 0.00167468 1 
18007 1 28.7301 59.4473 -4.60057 0.0130549 1 
18008 1 26.0262 59.6047 -3.68183 0.0377572 1 
18009 1 26.9944 57.1731 -4.87588 0.020524 1 
18010 1 24.2891 57.3219 -3.98173 0.0818234 1 
18011 1 26.3639 57.2933 -2.10826 0.277122 1 
18012 1 23.6291 57.4825 -1.24895 7.05239 5 
18013 1 24.7309 54.9716 -2.19949 5.40973 5 
18014 1 22.0844 55.219 -1.40569 6.25229 5 
18111 1 40.9626 65.5013 -14.2997 4.42357e-05 1 
18113 1 39.2171 63.2419 -14.5198 3.20573e-05 1 
18114 1 36.5193 63.413 -13.5657 6.50829e-05 1 
18115 1 38.6944 63.3675 -11.7065 0.000114652 1 
18116 1 35.9942 63.5412 -10.7511 0.000281505 1 
18117 1 36.9461 61.1085 -11.9266 0.000144339 1 
18118 1 34.2456 61.2801 -10.9681 0.00051813 1 
18119 1 36.4157 61.2386 -9.11555 0.00110175 1 
18120 1 33.7086 61.4099 -8.14298 0.00492511 1 
18121 1 34.6729 58.9778 -9.33052 0.000439387 1 
18122 1 31.9727 59.1471 -8.37366 0.000609688 1 
18123 1 34.1458 59.1071 -6.51554 0.00639899 1 
18124 1 31.4407 59.2764 -5.55219 0.00771668 1 
18125 1 32.4029 56.8415 -6.74237 0.00171344 1 
18126 1 29.6995 57.0095 -5.80041 0.00609935 1 
18127 1 31.859 56.9741 -3.94415 0.0320451 1 
18128 1 29.1258 57.1518 -3.01302 0.112111 1 
18129 1 30.1212 54.7047 -4.13407 0.0438997 1 
18130 1 27.4348 54.8699 -3.22183 0.071225 1 
18131 1 29.5733 54.8111 -1.25462 5.01745 5 
18132 1 26.8247 54.9879 -0.374013 9.90802 5 
18133 1 27.9584 52.5897 -1.63781 0.749704 5 
18134 1 25.448 52.5948 -0.538753 3.31489 5 
18224 1 44.0901 63.0223 -13.6103 4.19155e-05 1 
18225 1 41.3932 63.1939 -12.6589 6.1769e-05 1 
18226 1 42.3454 60.7636 -13.83 4.94582e-05 1 
18227 1 39.6464 60.9357 -12.8792 7.30649e-05 1 
18228 1 41.8213 60.8873 -11.0184 0.000394327 1 
18229 1 39.1195 61.0631 -10.0684 0.000464503 1 
18230 1 40.076 58.6309 -11.2353 0.000146867 1 
18231 1 37.3748 58.8051 -10.2855 0.000168866 1 
18232 1 39.5508 58.7607 -8.41959 0.00168255 1 
18233 1 36.8505 58.9361 -7.47253 0.00255913 1 
18234 1 37.8026 56.5045 -8.64726 0.000520142 1 
18235 1 35.102 56.6739 -7.69549 0.000615309 1 
18236 1 37.2755 56.6427 -5.83433 0.00739253 1 
18237 1 34.5805 56.7944 -4.88408 0.0109641 1 
18238 1 35.515 54.3692 -6.05427 0.00681186 1 
18239 1 32.8212 54.536 -5.09242 0.0113957 1 
18240 1 34.9759 54.4828 -3.20663 0.0512118 1 
18241 1 32.2742 54.6764 -2.26379 0.195039 1 
18242 1 33.2848 52.2174 -3.49236 0.0604036 1 
18243 1 30.5989 52.3629 -2.59332 0.1894 1 
18244 1 32.7822 52.4045 -0.754582 5.70642 5 
18245 1 31.0126 49.9841 -0.89089 1.02988 5 
18329 1 45.043 60.5934 -14.7807 3.02391e-05 1 
18331 1 44.5212 60.7137 -11.9674 0.00022715 1 
18332 1 45.4749 58.2859 -13.1339 7.00714e-05 1 
18333 1 42.7759 58.4573 -12.1841 0.000131178 1 
18334 1 44.9513 58.4064 -10.3165 0.00058902 1 
18335 1 42.25 58.5829 -9.36575 0.0014945 1 
18336 1 43.2052 56.154 -10.5398 0.000172431 1 
18337 1 40.504 56.3289 -9.59293 0.00021251 1 
18338 1 42.6739 56.2842 -7.72301 0.00156824 1 
18339 1 39.9739 56.4655 -6.7769 0.00234227 1 
18340 1 40.9287 54.026 -7.95687 0.00266695 1 
18341 1 38.221 54.2056 -7.0185 0.00537506 1 
18342 1 40.369 54.1678 -5.15721 0.0330343 1 
18343 1 37.6548 54.3576 -4.22563 0.0763235 1 
18344 1 38.6564 51.9056 -5.38777 0.0218506 1 
18345 1 35.9484 52.0665 -4.4056 0.0369761 1 
18346 1 38.1158 52.0374 -2.64132 5.3707 5 
18347 1 35.4654 52.1536 -1.51962 5.69202 5 
18348 1 36.4222 49.7897 -2.70304 0.178845 1 
18349 1 33.7222 49.9193 -1.79692 0.274798 1 
18432 1 45.9063 55.9809 -11.4874 7.66757e-05 1 
18434 1 45.3787 56.1038 -8.67017 0.000567102 1 
18436 1 43.6346 53.8506 -8.90104 0.00138141 1 
18437 1 45.8059 53.7986 -7.03733 0.0129266 1 
18438 1 43.0903 53.9782 -6.10302 0.0179505 1 
18439 1 44.0807 51.5474 -7.24918 0.00753191 1 
18440 1 41.3661 51.7239 -6.29778 0.00934261 1 
18441 1 43.5686 51.6554 -4.45473 0.0640093 1 
18442 1 40.8371 51.8667 -3.48748 6.40515 5 
18443 1 41.8173 49.4286 -4.65143 0.0105224 1 
18444 1 39.1245 49.6307 -3.69601 0.0749757 1 
18445 1 41.3252 49.564 -1.81247 2.21678 5 
18446 1 38.7376 49.8935 -0.854501 4.76743 5 
18447 1 39.4983 47.3999 -2.04766 0.272151 1 
18448 1 36.7599 47.5076 -1.1675 0.829605 1 
18532 1 44.5201 49.2557 -5.60624 0.0125677 1 
18534 1 44.0241 49.3534 -2.77137 0.115398 1 
18535 1 44.9282 46.97 -4.0162 0.0365303 1 
18536 1 42.2286 47.1339 -3.03816 0.0709298 1 
18537 1 44.4119 47.0738 -1.19488 5.58103 5 
18538 1 41.7294 47.2529 -0.243344 6.3942 5 
18539 1 42.7331 44.8335 -1.23952 8.87951 5 
18540 1 39.927 45.2051 -0.453216 7.98964 5 
18624 1 45.2897 44.6475 -2.45618 5.80318 5 
106722 2 43.7787 53.4788 1.12218 9.0607 5 
122738 2 17.258 38.2587 1.07017 7.98996 5 
124220 2 29.2479 14.7874 0.550903 10.3642 5 
19969 1 2.51943 65.3044 -6.84193 0.00359478 1 
19970 1 -0.164335 65.4559 -5.86379 0.00625638 1 
19971 1 2.03816 65.3848 -4.0331 0.0856229 1 
19973 1 0.261786 63.1153 -4.20789 0.0545128 1 
19974 1 -0.24082 63.147 -1.43159 1.19564 5 
20093 1 7.89616 65.0043 -8.76943 0.000537818 1 
20094 1 5.20549 65.1582 -7.81015 0.00170636 1 
20095 1 7.38356 65.1317 -5.9622 0.00605877 1 
20096 1 4.70694 65.2691 -5.00233 0.0247572 1 
20097 1 5.63556 62.8487 -6.17515 0.00635834 1 
20098 1 2.94757 62.982 -5.19276 0.0142741 1 
20099 1 5.14517 62.9359 -3.36343 0.0983463 1 
20100 1 2.47686 63.0189 -2.34111 0.217021 1 
20101 1 3.30323 60.6474 -3.55684 0.201302 1 
20102 1 0.68138 60.7593 -2.51035 1.02359 5 
20103 1 1.05402 58.3983 -0.583709 6.0334 5 
20219 1 13.2818 64.6813 -10.6786 0.000193754 1 
20220 1 10.5884 64.8445 -9.72377 0.000207893 1 
20221 1 12.7534 64.8146 -7.86404 0.00149305 1 
20222 1 10.0672 64.9786 -6.91317 0.0024346 1 
20223 1 11.0187 62.5428 -8.07733 0.00103627 1 
20224 1 8.33041 62.7009 -7.12868 0.00187909 1 
20225 1 10.5169 62.6852 -5.25484 0.0188928 1 
20226 1 7.82951 62.8291 -4.32556 0.044492 1 
20227 1 8.74898 60.4005 -5.50204 0.024998 1 
20228 1 6.02287 60.5351 -4.56273 0.0791345 1 
20229 1 8.12248 60.5166 -2.75246 0.429943 1 
20230 1 5.35837 60.5649 -1.79621 6.22242 5 
20231 1 6.46369 58.2124 -2.85071 5.56668 5 
20232 1 3.75131 58.3119 -1.73007 5.55931 5 
20345 1 18.6838 64.348 -12.5844 0.000394294 1 
20346 1 15.9797 64.5164 -11.6338 0.000348769 1 
20347 1 18.1472 64.4827 -9.78698 0.00206477 1 
20348 1 15.4417 64.6513 -8.82202 0.00264633 1 
20349 1 16.4033 62.2162 -9.99498 0.000668411 1 
20350 1 13.7073 62.3799 -9.03412 0.000529692 1 
20351 1 15.8654 62.3558 -7.17538 0.0081256 1 
20352 1 13.1865 62.5144 -6.20601 0.00882211 1 
20353 1 14.1321 60.0828 -7.38917 0.00270874 1 
20354 1 11.4466 60.2471 -6.43305 0.00414496 1 
20355 1 13.595 60.227 -4.54674 0.0544447 1 
20356 1 10.8972 60.4099 -3.6276 0.152014 1 
20357 1 11.8729 57.9634 -4.78219 0.0321515 1 
20358 1 9.16911 58.1138 -3.83693 0.107665 1 
20359 1 11.293 58.1327 -1.952 5.4044 5 
20360 1 8.53001 58.281 -0.878308 6.52062 5 
20361 1 9.77268 55.881 -2.26479 0.952241 1 
20362 1 7.21818 55.9794 -1.36548 6.25147 5 
20473 1 24.0892 64.0067 -14.4614 0.000160062 1 
20474 1 21.3883 64.1774 -13.5247 0.000272832 1 
20475 1 23.5631 64.1368 -11.6582 0.000930197 1 
20476 1 20.8565 64.3102 -10.7275 0.00139372 1 
20477 1 21.815 61.873 -11.8876 0.000220011 1 
20478 1 19.1093 62.0453 -10.9487 0.00041917 1 
20479 1 21.2801 62.0069 -9.08501 0.00185622 1 
20480 1 18.5728 62.1807 -8.14834 0.00338223 1 
20481 1 19.5364 59.7437 -9.31798 0.000950267 1 
20482 1 16.8295 59.9188 -8.3666 0.00231889 1 
20483 1 18.9985 59.8856 -6.51865 0.00534493 1 
20484 1 16.2926 60.066 -5.56075 0.0163306 1 
20485 1 17.2595 57.6148 -6.76255 0.0143938 1 
20486 1 14.549 57.7938 -5.73966 0.0508817 1 
20487 1 16.7302 57.7639 -4.00737 0.1286 1 
20488 1 14.0001 57.9623 -2.83354 5.83469 5 
20489 1 15.034 55.4862 -4.16991 0.126645 1 
20490 1 12.397 55.6677 -3.20912 0.312751 1 
20491 1 14.7003 55.6269 -1.37462 6.7045 5 
20492 1 12.7301 53.4024 -1.52624 0.406947 1 
20493 1 9.9521 53.7411 -0.619258 5.99287 5 
20602 1 28.958 63.7943 -13.5275 0.000135114 1 
20603 1 26.263 63.9645 -12.5887 0.000348164 1 
20604 1 27.2146 61.5317 -13.7604 9.30802e-05 1 
20605 1 24.5171 61.7014 -12.8232 0.000171746 1 
20606 1 26.6881 61.6592 -10.9469 0.000514954 1 
20607 1 23.9876 61.8308 -10.0178 0.00101121 1 
20608 1 24.9452 59.3957 -11.1852 0.000247603 1 
20609 1 22.2431 59.5686 -10.2538 0.000500253 1 
20610 1 24.4131 59.5253 -8.38033 0.000890206 1 
20611 1 21.7064 59.7068 -7.45786 0.00287196 1 
20612 1 22.6772 57.2584 -8.62677 0.00218054 1 
20613 1 19.9694 57.4369 -7.70566 0.00532688 1 
20614 1 22.1419 57.3905 -5.85689 0.0169701 1 
20615 1 19.427 57.5792 -4.94069 0.031939 1 
20616 1 20.4293 55.1101 -6.1028 0.0844282 1 
20617 1 17.7149 55.2916 -5.15866 0.0883139 1 
20618 1 19.9326 55.2227 -3.42472 0.945263 1 
20619 1 17.2355 55.4229 -2.42199 0.745633 1 
20620 1 18.2279 52.9944 -3.33646 0.382235 1 
20621 1 15.4845 53.1899 -2.46541 0.119515 1 
20622 1 17.5906 53.1645 -0.460955 5.69664 5 
20623 1 15.908 50.9952 -0.721517 7.20991 5 
20731 1 31.6518 63.6255 -14.475 7.91029e-05 1 
20733 1 29.9096 61.3632 -14.7035 6.19993e-05 1 
20734 1 32.0784 61.3213 -12.8337 0.00013468 1 
20735 1 29.3836 61.4899 -11.8851 0.0002818 1 
20736 1 30.3377 59.0582 -13.0634 7.95372e-05 1 
20737 1 27.6425 59.2264 -12.1208 0.00012405 1 
20738 1 29.8087 59.1863 -10.2454 0.00027714 1 
20739 1 27.1127 59.3549 -9.30746 0.000434707 1 
20740 1 28.0717 56.9198 -10.483 0.000187054 1 
20741 1 25.3766 57.0868 -9.54968 0.000704134 1 
20742 1 27.5413 57.0474 -7.67397 0.00144365 1 
20743 1 24.8461 57.2101 -6.75296 0.00800504 1 
20744 1 25.8086 54.7747 -7.90154 0.00235343 1 
20745 1 23.1237 54.9386 -6.98514 0.0100788 1 
20746 1 25.2798 54.8872 -5.0686 0.0380737 1 
20747 1 22.6067 55.0487 -4.19949 0.0576248 1 
20748 1 23.5497 52.6271 -5.32258 0.0157442 1 
20749 1 20.8752 52.7765 -4.31572 0.250473 1 
20750 1 23.0629 52.747 -2.4864 0.511982 1 
20751 1 20.4277 52.8596 -1.24509 6.7425 5 
20752 1 21.2982 50.4792 -2.73364 5.73015 5 
20753 1 18.6076 50.7348 -1.74284 6.29133 5 
20854 1 37.4727 60.9817 -14.7407 3.58981e-05 1 
20855 1 34.7747 61.1521 -13.7869 9.14361e-05 1 
20856 1 35.7303 58.7206 -14.9629 3.16812e-05 1 
20857 1 33.0333 58.8898 -14.0119 5.22546e-05 1 
20858 1 35.2027 58.848 -12.1471 9.03644e-05 1 
20859 1 32.5048 59.0177 -11.194 0.000148346 1 
20860 1 33.4623 56.5847 -12.3726 5.35439e-05 1 
20861 1 30.7664 56.7526 -11.4247 8.55319e-05 1 
20862 1 32.9329 56.713 -9.55686 0.000168409 1 
20863 1 30.2368 56.8808 -8.60978 0.000480619 1 
20864 1 31.1947 54.4457 -9.78468 0.000140204 1 
20865 1 28.5008 54.6109 -8.84322 0.000161623 1 
20866 1 30.6628 54.5736 -6.96622 0.00215146 1 
20867 1 27.9695 54.7354 -6.03165 0.00324894 1 
20868 1 28.9281 52.2987 -7.20789 0.000772256 1 
20869 1 26.2337 52.4636 -6.2625 0.00348203 1 
20870 1 28.402 52.4168 -4.41135 0.0234429 1 
20871 1 25.7305 52.5578 -3.43328 0.114565 1 
20872 1 26.6462 50.1424 -4.62914 0.0226531 1 
20873 1 23.9493 50.3402 -3.70459 0.0842735 1 
20874 1 26.1198 50.1755 -1.81512 1.03784 5 
20875 1 23.3769 50.4535 -0.871995 7.22206 5 
20876 1 24.1772 48.0852 -2.1894 8.96931 5 
20877 1 22.4431 47.6666 0.122802 7.57916 5 
20974 1 40.6017 58.5049 -14.0498 3.24211e-05 1 
20975 1 37.9023 58.6766 -13.0995 4.07735e-05 1 
20976 1 38.8592 56.2452 -14.2726 2.23913e-05 1 
20977 1 36.1602 56.4154 -13.3228 3.33717e-05 1 
20978 1 38.3318 56.3726 -11.4592 6.94677e-05 1 
20979 1 35.6312 56.5441 -10.5089 8.13083e-05 1 
20980 1 36.5897 54.1104 -11.6829 7.3863e-05 1 
20981 1 33.8907 54.279 -10.733 8.69666e-05 1 
20982 1 36.0568 54.24 -8.87052 0.000507651 1 
20983 1 33.3581 54.4069 -7.91665 0.000612911 1 
20984 1 34.3207 51.9722 -9.09377 0.000213102 1 
20985 1 31.6239 52.1363 -8.149 0.000635726 1 
20986 1 33.7915 52.0966 -6.28394 0.00385064 1 
20987 1 31.0979 52.2599 -5.34989 0.0124649 1 
20988 1 32.0545 49.8255 -6.50151 0.00160672 1 
20989 1 29.3522 49.9817 -5.5643 0.0026826 1 
20990 1 31.5252 49.9356 -3.68928 0.0256931 1 
20991 1 28.8041 50.0899 -2.76359 0.168341 1 
20992 1 29.7388 47.6686 -3.92592 0.088439 1 
20993 1 26.9785 47.7964 -3.02346 0.781168 5 
20994 1 28.9222 47.8299 -1.12512 3.09888 5 
20995 1 27.5587 45.4098 -1.25957 9.53773 5 
20996 1 25.8832 47.3572 -0.368364 13.3616 5 
21084 1 43.3002 58.3343 -14.9997 2.6468e-05 1 
21087 1 43.732 56.0287 -13.3554 3.48467e-05 1 
21088 1 41.0322 56.2002 -12.4071 4.27977e-05 1 
21089 1 41.9903 53.7698 -13.579 2.5864e-05 1 
21090 1 39.2902 53.9402 -12.6316 5.33909e-05 1 
21091 1 41.4627 53.8961 -10.7658 0.000192665 1 
21092 1 38.7601 54.0691 -9.82113 0.000468769 1 
21093 1 39.7225 51.6362 -10.9887 0.000118137 1 
21094 1 37.0205 51.8059 -10.041 0.000163117 1 
21095 1 39.1934 51.7657 -8.1786 0.00158723 1 
21096 1 36.4856 51.9363 -7.22834 0.00199691 1 
21097 1 37.452 49.5057 -8.39331 0.00100477 1 
21098 1 34.7528 49.6676 -7.44546 0.00120066 1 
21099 1 36.9242 49.647 -5.56573 0.0133552 1 
21100 1 34.2311 49.7912 -4.61923 0.0155008 1 
21101 1 35.1763 47.374 -5.80274 0.00520071 1 
21102 1 32.4674 47.5225 -4.86202 0.011569 1 
21103 1 34.602 47.5165 -2.97465 0.093663 1 
21104 1 31.856 47.6237 -2.05988 0.527466 1 
21105 1 32.9054 45.2175 -3.24667 0.0497584 1 
21106 1 30.1887 45.3872 -2.20077 5.1511 5 
21107 1 32.3811 45.2886 -0.416882 7.86582 5 
21108 1 30.8238 43.0172 -0.682428 6.05525 5 
21192 1 44.6897 53.6002 -14.5268 2.20997e-05 1 
21194 1 44.1644 53.7244 -11.7119 9.16176e-05 1 
21195 1 45.124 51.2964 -12.8818 0.000103834 1 
21196 1 42.4233 51.4661 -11.9347 7.6047e-05 1 
21197 1 44.5999 51.4221 -10.0653 0.000597764 1 
21198 1 41.897 51.5937 -9.11759 0.000747385 1 
21199 1 42.856 49.1652 -10.2931 0.000150148 1 
21200 1 40.1541 49.3353 -9.34404 0.000248472 1 
21201 1 42.3307 49.2974 -7.47593 0.00103087 1 
21202 1 39.6283 49.4694 -6.52327 0.00440083 1 
21203 1 40.5834 47.0381 -7.70413 0.000838614 1 
21204 1 37.8826 47.2114 -6.75797 0.00284382 1 
21205 1 40.0511 47.1834 -4.87852 0.0173738 1 
21206 1 37.3448 47.3812 -3.95536 0.0425037 1 
21207 1 38.3291 44.9045 -5.14096 0.0243681 1 
21208 1 35.6041 45.084 -4.18163 0.0321686 1 
21209 1 37.798 45.1017 -2.42618 0.255067 1 
21210 1 35.0486 45.2627 -1.34826 4.92007 5 
21211 1 36.1041 42.7537 -2.6268 0.320333 1 
21212 1 33.449 42.8997 -1.64903 0.602105 1 
21296 1 45.5579 48.9955 -11.2403 0.000254586 1 
21298 1 45.0351 49.1255 -8.42458 0.00166282 1 
21299 1 45.9892 46.695 -9.60914 0.00107508 1 
21300 1 43.2852 46.864 -8.65921 0.000745521 1 
21301 1 45.4602 46.8298 -6.80859 0.00679136 1 
21302 1 42.7547 46.9998 -5.85052 0.00479032 1 
21303 1 43.7089 44.5554 -7.01935 0.00699543 1 
21304 1 41.0169 44.7384 -6.07034 0.00485785 1 
21305 1 43.1608 44.6952 -4.19844 0.0916199 1 
21306 1 40.5077 44.8971 -3.2427 0.0910311 1 
21307 1 41.4741 42.4482 -4.41376 0.0354654 1 
21308 1 38.8101 42.5663 -3.50762 0.34951 1 
21309 1 41.01 42.6518 -1.57326 1.87504 5 
21310 1 38.4008 42.9192 -0.849691 3.2458 5 
21311 1 39.2807 40.1712 -1.47094 7.47117 5 
21312 1 36.2996 40.3674 -0.920045 4.73451 5 
21395 1 45.8611 44.5163 -5.2068 0.0528722 1 
21397 1 44.1475 42.2405 -5.33632 0.0437387 1 
21399 1 43.688 42.3951 -2.45284 0.481813 1 
21400 1 44.5532 39.9073 -3.69095 0.192997 1 
21401 1 41.8974 40.242 -2.75083 1.37201 5 
21402 1 44.1552 40.098 -0.855295 2.3101 5 
21403 1 41.9195 38.5238 -0.67118 2.04871 5 
21404 1 39.5009 37.0344 -0.46859 9.12747 5 
21488 1 44.7245 37.4641 -2.14882 5.35466 5 
124981 2 7.89085 33.0049 1.06702 7.15659 5 
103773 2 45.3164 58.1726 0.940993 8.10359 5 
111857 2 38.7001 47.5899 0.860965 8.64604 5 
127547 2 1.05652 2.40004 0.0564815 10.4192 5 
22853 1 3.55011 65.0803 -12.48 9.06735e-05 1 
22854 1 0.856806 65.2449 -11.5198 0.000187481 1 
22855 1 3.03061 65.1968 -9.66187 0.00044899 1 
22856 1 0.340295 65.3584 -8.69545 0.00101848 1 
22857 1 1.28491 62.9352 -9.87311 0.000527766 1 
22858 1 0.766802 63.0436 -7.04726 0.00500131 1 
22969 1 8.94134 64.7542 -14.3936 2.99552e-05 1 
22970 1 6.24508 64.9175 -13.4381 4.5754e-05 1 
22971 1 8.41759 64.8784 -11.5813 8.08184e-05 1 
22972 1 5.72313 65.0387 -10.6239 0.000199612 1 
22973 1 6.67492 62.6106 -11.7953 7.68797e-05 1 
22974 1 3.9792 62.7719 -10.8354 0.000181676 1 
22975 1 6.15277 62.7316 -8.98318 0.000423678 1 
22976 1 3.45774 62.8856 -8.01766 0.00127992 1 
22977 1 4.40697 60.4623 -9.18952 0.000903855 1 
22978 1 1.7122 60.6223 -8.2253 0.00271624 1 
22979 1 3.87318 60.5707 -6.37356 0.0106468 1 
22980 1 1.1837 60.7202 -5.3998 0.0326875 1 
22981 1 2.13601 58.3112 -6.54864 0.0112865 1 
22983 1 1.62223 58.395 -3.68459 0.115267 1 
22984 1 -0.12506 56.1776 -3.95895 0.0375614 1 
23094 1 13.8106 64.5517 -13.4897 7.54253e-05 1 
23095 1 11.1131 64.7158 -12.536 5.58551e-05 1 
23096 1 12.0676 62.2846 -13.7061 3.85936e-05 1 
23097 1 9.37102 62.4482 -12.7515 3.94353e-05 1 
23098 1 11.5415 62.4119 -10.8935 9.68242e-05 1 
23099 1 8.84766 62.5736 -9.93934 0.000159323 1 
23100 1 9.80112 60.1425 -11.1087 0.000110191 1 
23101 1 7.10475 60.3034 -10.1522 0.000347908 1 
23102 1 9.27796 60.2695 -8.2985 0.00108676 1 
23103 1 6.57821 60.4225 -7.34595 0.0049215 1 
23104 1 7.53392 57.9983 -8.5023 0.00118909 1 
23105 1 4.83338 58.1554 -7.52698 0.00419759 1 
23106 1 7.00416 58.1175 -5.67943 0.0207091 1 
23107 1 4.29942 58.2596 -4.68023 0.0488591 1 
23108 1 5.27035 55.8513 -5.88931 0.0113123 1 
23109 1 2.57557 56.0038 -4.90913 0.0138569 1 
23110 1 4.79244 55.9526 -3.07204 0.440917 1 
23111 1 2.06533 56.1012 -2.07237 1.10417 5 
23112 1 2.96846 53.6985 -3.31889 1.06072 5 
23113 1 0.201474 53.8943 -2.41871 2.49701 5 
23114 1 2.22565 53.5922 -0.647305 8.68462 5 
23222 1 16.5109 64.3857 -14.4408 0.00010547 1 
23224 1 14.7661 62.1197 -14.6594 5.07006e-05 1 
23225 1 16.9374 62.0824 -12.8033 0.000146956 1 
23226 1 14.2372 62.2484 -11.8494 0.000109773 1 
23227 1 15.1945 59.8148 -13.0203 0.000111906 1 
23228 1 12.4966 59.9796 -12.0644 7.89035e-05 1 
23229 1 14.6637 59.9461 -10.2096 0.000417958 1 
23230 1 11.9705 60.1095 -9.25036 0.000294292 1 
23231 1 12.9268 57.6749 -10.4226 0.000262837 1 
23232 1 10.2321 57.8378 -9.46391 0.000326963 1 
23233 1 12.4003 57.8101 -7.60743 0.00206982 1 
23234 1 9.70754 57.9697 -6.65028 0.00462571 1 
23235 1 10.6712 55.5312 -7.82461 0.00263406 1 
23236 1 7.97415 55.693 -6.86954 0.00719518 1 
23237 1 10.1711 55.6669 -5.03463 0.0428526 1 
23238 1 7.48971 55.7898 -4.09545 0.178383 1 
23239 1 8.41728 53.3806 -5.2146 0.0188838 1 
23240 1 5.69467 53.5354 -4.26159 0.0741068 1 
23241 1 7.84063 53.4757 -2.39259 2.35545 5 
23242 1 5.03615 53.5681 -1.50314 4.17063 5 
23243 1 6.10918 51.2233 -2.47328 5.35236 5 
23244 1 3.60824 51.1908 -0.889167 9.22961 5 
23352 1 22.3429 61.7433 -14.6918 8.70987e-05 1 
23353 1 19.6408 61.9132 -13.7507 0.000135933 1 
23354 1 20.5978 59.4789 -14.9184 9.94301e-05 1 
23355 1 17.8958 59.6477 -13.9726 0.000136666 1 
23356 1 20.0695 59.6086 -12.116 0.000282666 1 
23357 1 17.3646 59.7795 -11.1693 0.000488286 1 
23358 1 18.3262 57.3408 -12.3373 0.000429352 1 
23359 1 15.6236 57.5093 -11.3819 0.000445227 1 
23360 1 17.7944 57.4737 -9.54291 0.00233018 1 
23361 1 15.09 57.6447 -8.57128 0.00400516 1 
23362 1 16.0591 55.2 -9.74429 0.00201548 1 
23363 1 13.3632 55.3679 -8.78309 0.00211161 1 
23364 1 15.5336 55.3334 -6.94957 0.0177667 1 
23365 1 12.849 55.5062 -5.98395 0.0181685 1 
23366 1 13.8162 53.0614 -7.12075 0.00358725 1 
23367 1 11.1193 53.2216 -6.16203 0.0073449 1 
23368 1 13.2951 53.2024 -4.31378 0.0249132 1 
23369 1 10.5737 53.372 -3.36375 0.182516 1 
23370 1 11.5408 50.9223 -4.45821 0.307278 1 
23371 1 8.84416 51.0813 -3.46574 3.89423 5 
23372 1 10.906 51.2172 -1.46443 6.08586 5 
23373 1 8.57362 51.6878 0.495784 8.08986 5 
23374 1 9.70113 48.7936 -2.10527 6.41161 5 
23375 1 7.56586 49.536 -0.883902 11.3406 5 
127523 2 7.41223 4.39331 1.05427 8.72968 5 
23484 1 25.4717 59.2679 -13.9931 7.90964e-05 1 
23485 1 22.7724 59.4376 -13.055 0.000152628 1 
23486 1 23.7293 57.0026 -14.2228 0.000101628 1 
23487 1 21.0291 57.1714 -13.2822 0.000248588 1 
23488 1 23.2043 57.1296 -11.4199 0.000388502 1 
23489 1 20.5015 57.301 -10.4864 0.00113314 1 
23490 1 21.463 54.8611 -11.6443 0.00067693 1 
23491 1 18.7612 55.0299 -10.6999 0.0012819 1 
23492 1 20.9423 54.9857 -8.85486 0.00710101 1 
23493 1 18.2358 55.1576 -7.91516 0.0112298 1 
23494 1 19.199 52.7187 -9.04137 0.00273967 1 
23495 1 16.5072 52.8887 -8.07935 0.00446595 1 
23496 1 18.6907 52.846 -6.21332 0.0344923 1 
23497 1 16.013 53.0203 -5.25229 0.0392372 1 
23498 1 16.9485 50.5852 -6.40923 0.0131681 1 
23499 1 14.2572 50.7724 -5.45742 0.0623623 1 
23500 1 16.4198 50.7285 -3.55853 0.142855 1 
23501 1 13.6707 50.9658 -2.59878 0.640293 1 
23502 1 14.8152 48.4594 -3.90459 0.333735 1 
23503 1 12.2072 48.5772 -3.04093 1.36341 1 
23504 1 14.4152 48.7534 -1.18574 6.41366 5 
23505 1 12.6485 46.2692 -1.1432 3.29461 5 
23506 1 9.92002 46.7262 -0.341343 2.14895 5 
23612 1 28.1681 59.0996 -14.9342 4.05749e-05 1 
23615 1 28.5981 56.7931 -13.295 5.08353e-05 1 
23616 1 25.9024 56.9605 -12.355 0.000128673 1 
23617 1 26.858 54.5266 -13.5242 4.59777e-05 1 
23618 1 24.1616 54.6935 -12.5839 0.000185853 1 
23619 1 26.3336 54.6513 -10.7144 0.000167289 1 
23620 1 23.6397 54.8177 -9.78146 0.00114319 1 
23621 1 24.5922 52.3834 -10.9425 0.000206563 1 
23622 1 21.8945 52.5504 -9.99612 0.000989721 1 
23623 1 24.0675 52.5065 -8.13619 0.00148387 1 
23624 1 21.3734 52.6742 -7.17779 0.0188104 1 
23625 1 22.3222 50.2422 -8.35829 0.00195102 1 
23626 1 19.6284 50.4137 -7.39097 0.00281145 1 
23627 1 21.7903 50.3767 -5.56082 0.0273749 1 
23628 1 19.1106 50.5507 -4.55915 0.0545222 1 
23629 1 20.0509 48.1025 -5.72885 0.0574808 1 
23630 1 17.4474 48.2781 -4.72964 0.0635947 1 
23631 1 19.6453 48.2435 -2.79618 8.84436 5 
23632 1 17.0132 48.4118 -1.82682 7.60023 5 
23633 1 17.9127 45.9818 -3.02703 0.0891685 1 
23634 1 15.2556 46.1971 -2.16429 0.494039 1 
23635 1 17.5606 46.0499 -0.107488 8.70212 5 
23636 1 15.5705 44.0344 -0.367403 8.22074 5 
23744 1 31.2934 56.6257 -14.2397 2.98617e-05 1 
23746 1 29.5538 54.3602 -14.4677 2.08403e-05 1 
23747 1 31.7233 54.3191 -12.5997 3.45913e-05 1 
23748 1 29.0281 54.4853 -11.6553 4.54695e-05 1 
23749 1 29.9844 52.0521 -12.8274 2.5995e-05 1 
23750 1 27.2885 52.2175 -11.8838 4.3853e-05 1 
23751 1 29.4573 52.176 -10.0159 8.35954e-05 1 
23752 1 26.7619 52.3411 -9.0743 8.8893e-05 1 