ITEM: TIMESTEP
0
ITEM: NUMBER OF ATOMS
4481
ITEM: BOX BOUNDS xy xz yz pp pp ss
-6.4482817479000005e+01 4.4641950561999998e+01 -6.4482817479000005e+01
0.0000000000000000e+00 5.6191469548000001e+01 0.0000000000000000e+00
-1.0690897876613474e+02 1.0022682784684537e+02 0.0000000000000000e+00
ITEM: ATOMS id type x y z c_csym c_cna 
14 1 -0.887084 1.85623 -14.0623 5.99335e-05 1 
15 1 -0.887962 1.99771 -11.2046 0.000275085 1 
16 1 -0.89075 2.13706 -8.34724 0.00199656 1 
17 1 -0.898844 2.27689 -5.48973 0.0148085 1 
18 1 -22.3987 56.1537 -5.34226 0.0142648 1 
169 1 -2.53825 6.53289 -14.3047 6.32214e-05 1 
170 1 -0.884548 8.87194 -14.4218 5.4198e-05 1 
171 1 -0.883283 9.01796 -11.5685 0.000210747 1 
174 1 38.7977 1.85636 -14.06 2.17497e-05 1 
175 1 -4.1915 4.19392 -14.183 3.95801e-05 1 
176 1 41.2762 1.9276 -12.6303 7.07268e-05 1 
177 1 -1.71232 4.26553 -12.7578 0.000110397 1 
178 1 -4.19162 4.33696 -11.3266 0.000153267 1 
179 1 -2.53793 6.67715 -11.4521 0.000227857 1 
180 1 -1.7121 4.40691 -9.90603 0.000513324 1 
181 1 -2.53791 6.81955 -8.60581 0.000876567 1 
182 1 -0.881448 9.16339 -8.72211 0.00127749 1 
183 1 -0.881487 9.31057 -5.89221 0.017371 1 
184 1 38.798 2.00008 -11.2012 7.63584e-05 1 
185 1 41.2753 2.07008 -9.76892 0.000566348 1 
186 1 38.7982 2.14475 -8.34044 0.000739074 1 
187 1 -4.19233 4.47762 -8.47091 0.00101847 1 
188 1 41.2711 2.21422 -6.89808 0.00686828 1 
189 1 -1.71091 4.54543 -7.0621 0.00355634 1 
190 1 -4.18935 4.61341 -5.61368 0.00739495 1 
191 1 -2.53628 6.95609 -5.7683 0.0056263 1 
192 1 -1.68953 4.67741 -4.23487 0.0349267 1 
196 1 -24.8632 56.0716 -6.78881 0.00251173 1 
197 1 -27.3428 56.147 -5.39056 0.0139581 1 
198 1 38.7966 2.29036 -5.47137 0.00819802 1 
199 1 39.6177 0.0213305 -3.94074 0.0998221 1 
200 1 41.2594 2.3708 -4.00456 0.124109 1 
530 1 -2.53821 13.5457 -14.6456 6.19151e-05 1 
531 1 -0.884843 15.88 -14.761 4.36282e-05 1 
532 1 -0.885056 16.0267 -11.8997 0.000337109 1 
547 1 -5.84356 8.87117 -14.4192 5.15612e-05 1 
548 1 -4.19088 11.2096 -14.5329 5.73995e-05 1 
549 1 -3.36422 8.94502 -12.9928 0.000110927 1 
550 1 -1.71092 11.2834 -13.1054 8.7872e-05 1 
551 1 -4.19036 11.3579 -11.6741 0.000235169 1 
552 1 -2.53857 13.6939 -11.7827 0.000340338 1 
553 1 -1.70992 11.4311 -10.249 0.000396 1 
554 1 -2.54003 13.8427 -8.91687 0.00244362 1 
555 1 -0.884826 16.1698 -9.04384 0.00382853 1 
556 1 -0.874732 16.297 -6.20464 0.0349948 1 
563 1 35.4928 4.1939 -14.1831 1.8374e-05 1 
564 1 37.1458 6.53216 -14.3019 3.18595e-05 1 
565 1 37.972 4.26601 -12.7532 4.22291e-05 1 
566 1 -5.01732 6.60486 -12.8751 8.6643e-05 1 
567 1 -7.49478 6.67651 -11.4446 0.000144813 1 
568 1 -5.84278 9.01739 -11.5636 0.000209251 1 
569 1 -5.01741 6.74821 -10.0218 0.000405418 1 
570 1 -3.36383 9.09133 -10.1405 0.000385174 1 
571 1 -5.84197 9.16203 -8.71253 0.00140413 1 
572 1 -4.18951 11.5071 -8.8165 0.00107702 1 
573 1 -3.36329 9.23536 -7.29352 0.00174859 1 
574 1 -1.7086 11.5786 -7.39598 0.00320116 1 
575 1 -4.18783 11.654 -5.96307 0.00916402 1 
576 1 -2.54201 13.9904 -6.04467 0.0192739 1 
577 1 -1.72098 11.7428 -4.54681 0.0541565 1 
16160 1 -44.7019 55.9369 -9.66969 0.000890567 1 
16079 1 -41.391 53.4541 -12.3898 4.94738e-05 1 
581 1 33.8388 1.85619 -14.0626 5.51306e-05 1 
582 1 36.3188 1.92817 -12.6328 5.1088e-05 1 
583 1 33.8388 1.99946 -11.2083 0.000263779 1 
584 1 35.4944 4.33795 -11.326 5.005e-05 1 
585 1 36.3195 2.07247 -9.77738 0.000263087 1 
586 1 37.9722 4.40981 -9.89391 0.000334083 1 
587 1 35.4969 4.48215 -8.46539 0.000699703 1 
588 1 -7.49289 6.81874 -8.5836 0.00148934 1 
589 1 37.9723 4.55318 -7.02739 0.00303051 1 
590 1 -5.01762 6.88588 -7.17333 0.00341319 1 
591 1 -7.49115 6.95529 -5.70712 0.0193971 1 
592 1 -5.8403 9.29806 -5.87801 0.0183294 1 
593 1 -5.00979 6.99969 -4.33471 0.0441822 1 
594 1 -3.35963 9.35997 -4.44636 0.031234 1 
601 1 33.8391 2.14388 -8.35939 0.00208936 1 
602 1 -29.8272 56.0677 -6.81845 0.0133765 1 
603 1 36.3218 2.2203 -6.9239 0.00229189 1 
604 1 33.8489 2.29023 -5.51833 0.018097 1 
605 1 35.5001 4.62491 -5.59141 0.00815297 1 
606 1 36.3389 2.3584 -4.06573 0.0159211 1 
607 1 37.9728 4.69534 -4.14435 0.0343722 1 
614 1 -32.3198 56.1295 -5.36455 0.0183964 1 
615 1 34.6417 0.018202 -4.02454 0.184852 1 
1098 1 -2.53794 20.5462 -14.9931 1.79996e-05 1 
1100 1 -0.885891 23.0257 -12.2446 0.000284823 1 
1127 1 -5.84353 15.8794 -14.7566 7.11109e-05 1 
1128 1 -4.19124 18.2126 -14.8738 3.30077e-05 1 
1129 1 -3.36502 15.9536 -13.3247 0.000205855 1 
1130 1 -1.71186 18.2869 -13.4442 6.90866e-05 1 
1131 1 -4.19198 18.3589 -12.0068 0.000162087 1 
1132 1 -2.5388 20.6932 -12.128 8.82941e-05 1 
1133 1 -1.71308 18.4337 -10.5828 0.000820113 1 
1134 1 -2.54014 20.8415 -9.26429 0.00121547 1 
1135 1 -0.888796 23.1738 -9.37023 0.0019641 1 
1136 1 -0.894715 23.3259 -6.48076 0.0143967 1 
1155 1 -9.14857 11.2078 -14.5333 3.03671e-05 1 
1156 1 -7.49575 13.5447 -14.6441 6.06255e-05 1 
1157 1 -6.66905 11.2827 -13.1028 0.000112952 1 
1158 1 -5.01708 13.6198 -13.2117 0.000142639 1 
1159 1 -7.49319 13.6929 -11.7786 0.000415501 1 
1160 1 -5.84238 16.0273 -11.8877 0.000289342 1 
1161 1 -5.01682 13.7694 -10.3437 0.000711664 1 
1162 1 -3.36606 16.1008 -10.4532 0.00192624 1 
1163 1 -5.83987 16.1765 -9.0107 0.00115348 1 
1164 1 -4.19446 18.5032 -9.13683 0.00173893 1 
1165 1 -3.36642 16.2471 -7.56485 0.0210042 1 
1166 1 -1.71377 18.5767 -7.73383 0.0121213 1 
1167 1 -4.20121 18.6444 -6.26401 0.0159593 1 
1168 1 -2.54027 20.9893 -6.40921 0.0147254 1 
1169 1 -1.70926 18.6975 -4.93321 0.144865 1 
1170 1 -2.53076 21.1247 -3.58451 0.215494 1 
1171 1 -0.904933 23.4874 -3.56827 0.295959 1 
1183 1 32.187 6.5322 -14.3047 4.75927e-05 1 
1184 1 33.8404 8.8701 -14.4198 2.45535e-05 1 
1185 1 34.668 6.6042 -12.8749 5.79605e-05 1 
1186 1 -8.32143 8.94318 -12.9904 5.80214e-05 1 
1187 1 33.8432 9.01509 -11.5636 5.47135e-05 1 
1188 1 -9.14591 11.3543 -11.6749 0.000126019 1 
1189 1 -8.3191 9.08773 -10.1341 0.000261134 1 
1190 1 -6.66727 11.4312 -10.244 0.000698629 1 
1191 1 -9.14164 11.5 -8.81913 0.00111906 1 
1192 1 -7.48815 13.8431 -8.90447 0.00434531 1 
1193 1 -6.66396 11.5805 -7.3888 0.00599979 1 
1194 1 -5.01708 13.9211 -7.46606 0.00398307 1 
1195 1 -7.47799 13.9978 -6.00571 0.0526342 1 
1196 1 -5.83425 16.327 -6.12219 0.00684331 1 
1197 1 -5.01496 14.0785 -4.56899 0.0339481 1 
1198 1 -3.35723 16.3946 -4.64611 0.271326 1 
16096 1 -43.0631 51.5948 -3.64202 0.0635956 1 
16084 1 -44.6985 48.7933 -12.1512 0.000186457 1 
1207 1 28.8787 1.85717 -14.0624 5.70254e-05 1 
1208 1 30.5328 4.1942 -14.1861 6.31024e-05 1 
1209 1 31.3584 1.92757 -12.6353 0.000159621 1 
1210 1 33.014 4.26575 -12.7573 5.07634e-05 1 
1211 1 30.534 4.33719 -11.3341 0.000301014 1 
1212 1 32.1898 6.67629 -11.4517 0.000202446 1 
1213 1 33.0172 4.40903 -9.90255 0.00038576 1 
1214 1 34.672 6.74773 -10.0191 0.000303362 1 
1215 1 32.1956 6.81832 -8.60365 0.00153802 1 
1216 1 33.8474 9.15828 -8.70732 0.000277444 1 
1217 1 34.679 6.88877 -7.1625 0.00232198 1 
1218 1 -8.31685 9.22793 -7.27844 0.00245885 1 
1219 1 33.8505 9.30175 -5.84764 0.00408355 1 
1220 1 -9.13422 11.6426 -5.97625 0.0169014 1 
1221 1 -8.32133 9.35267 -4.41925 0.0374624 1 
1222 1 -6.65054 11.727 -4.54599 0.0616101 1 
16159 1 -44.6993 55.7912 -12.5215 0.000104463 1 
1229 1 28.8775 1.99947 -11.2054 0.000272688 1 
1230 1 31.3572 2.06876 -9.78378 0.00126508 1 
1231 1 28.8735 2.13977 -8.34886 0.00199872 1 
1232 1 30.5373 4.47841 -8.48959 0.00225019 1 
1233 1 31.3561 2.20723 -6.94624 0.0158144 1 
1234 1 33.0245 4.55137 -7.04074 0.00728225 1 
1235 1 30.5437 4.61748 -5.65872 0.0208237 1 
1236 1 32.205 6.9583 -5.76668 0.0137063 1 
1237 1 33.0288 4.68476 -4.15711 0.161197 1 
1238 1 34.6786 7.03211 -4.311 0.037675 1 
1245 1 -34.7906 56.0704 -6.76108 0.0136006 1 
1246 1 -37.2789 56.1581 -5.34571 0.0139481 1 
1247 1 28.8635 2.28012 -5.49175 0.014733 1 
1248 1 29.6671 0.0202493 -3.86914 0.23319 1 
1249 1 31.3614 2.33863 -4.15876 0.202029 1 
1873 1 -0.884559 30.0269 -12.6281 0.000123754 1 
1914 1 -3.36428 22.9515 -13.6797 8.77827e-05 1 
1915 1 -1.71142 25.2845 -13.803 5.92254e-05 1 
1916 1 -4.19071 25.3564 -12.3716 6.25176e-05 1 
1917 1 -2.53836 27.6906 -12.4976 0.000133611 1 
1918 1 -1.71341 25.43 -10.9357 0.000239839 1 
1919 1 -2.54186 27.8358 -9.63081 0.00123168 1 
1920 1 -0.886714 30.1721 -9.77451 0.00114138 1 
1921 1 -0.888867 30.3167 -6.93534 0.0159592 1 
1952 1 -9.14915 18.2117 -14.8736 4.94189e-05 1 
1953 1 -7.49688 20.5442 -14.9918 4.04965e-05 1 
1954 1 -6.6698 18.2853 -13.438 0.000203533 1 
1955 1 -5.01775 20.618 -13.5597 2.65381e-05 1 
1956 1 -7.49713 20.6896 -12.1242 0.000167344 1 
1957 1 -5.84388 23.0228 -12.249 7.41168e-05 1 
1958 1 -5.01888 20.7636 -10.6943 0.000389231 1 
1959 1 -3.3649 23.0982 -10.8103 0.000727985 1 
1960 1 -5.84456 23.1693 -9.38542 0.000894666 1 
1961 1 -4.19212 25.5023 -9.50563 0.000369154 1 
1962 1 -3.36514 23.2471 -7.93063 0.00883192 1 
1963 1 -1.7178 25.5773 -8.06291 0.00135354 1 
1964 1 -4.19664 25.6521 -6.64243 0.00833928 1 
1965 1 -2.5508 27.9846 -6.75107 0.0138383 1 
1966 1 -1.733 25.7268 -5.18304 0.015317 1 
1967 1 -2.57515 28.1315 -3.85835 0.227487 1 
1968 1 -0.884023 30.455 -4.14958 0.212816 1 
1992 1 -12.4554 13.5435 -14.648 2.52173e-05 1 
1993 1 -10.8018 15.8783 -14.7602 3.22152e-05 1 
1994 1 -9.97338 13.6173 -13.2159 7.25172e-05 1 
1995 1 -8.32092 15.9523 -13.3248 7.58212e-05 1 
1996 1 -10.7986 16.0253 -11.8973 0.000118885 1 
1997 1 -9.14723 18.3585 -12.0064 0.000179956 1 
1998 1 -8.31679 16.0999 -10.4565 0.000253956 1 
1999 1 -6.6692 18.4321 -10.5637 0.00160312 1 
2000 1 -9.14439 18.5075 -9.13677 0.00110868 1 
2001 1 -7.49921 20.8353 -9.2531 0.00133701 1 
2002 1 -6.67082 18.5808 -7.67365 0.0150011 1 
2003 1 -5.02175 20.9085 -7.83594 0.00798249 1 
2004 1 -7.50879 20.9823 -6.37606 0.0154137 1 
2005 1 -5.84436 23.32 -6.52985 0.0121578 1 
2006 1 -5.03405 21.0541 -5.01374 0.126605 1 
2007 1 -3.36462 23.3981 -5.02553 0.129396 1 
2008 1 -5.8123 23.4832 -3.67311 0.214558 1 
2009 1 -4.24987 25.8225 -3.80324 0.26623 1 
2028 1 28.8793 8.87166 -14.4219 5.29048e-05 1 
2029 1 30.5329 11.2081 -14.535 2.29763e-05 1 
2030 1 31.3612 8.94341 -12.9937 5.78958e-05 1 
2031 1 -11.6272 11.2805 -13.1055 2.69263e-05 1 
2032 1 30.5349 11.3543 -11.6777 6.15659e-05 1 
2033 1 -12.4524 13.6896 -11.7894 0.000110089 1 
2034 1 -11.6236 11.4253 -10.249 7.80833e-05 1 
2035 1 -9.9681 13.7643 -10.3554 0.000499471 1 
2036 1 -12.4464 13.8332 -8.93482 0.000767875 1 
2037 1 -10.7925 16.1733 -9.03477 0.000551874 1 
2038 1 -9.95811 13.9126 -7.49775 0.00464943 1 
2039 1 -8.31072 16.2494 -7.58531 0.00221205 1 
2040 1 -10.7883 16.3256 -6.17202 0.00385776 1 
2041 1 -9.14859 18.6662 -6.26746 0.00860532 1 
2042 1 -8.3086 16.4161 -4.72872 0.0596403 1 
2043 1 -6.68179 18.7394 -4.76117 0.175905 1 
2044 1 -9.13487 18.8671 -3.3791 0.21906 1 
2045 1 -7.53626 21.1184 -3.45287 0.340461 1 
2056 1 25.5724 4.19643 -14.1856 3.87857e-05 1 
2057 1 27.2257 6.53389 -14.3058 5.95101e-05 1 
2058 1 28.0524 4.26688 -12.7588 0.000105885 1 
2059 1 29.7069 6.6053 -12.8796 0.00012452 1 
2060 1 27.2258 6.67867 -11.4535 0.000220289 1 
2061 1 28.8805 9.018 -11.5689 0.000207057 1 
2062 1 29.7087 6.74916 -10.032 0.000609325 1 
2063 1 31.3645 9.0883 -10.1408 0.000220889 1 
2064 1 28.8819 9.16373 -8.72265 0.00127226 1 
2065 1 30.5384 11.498 -8.81973 0.00100401 1 
2066 1 31.3694 9.23219 -7.29057 0.00207339 1 
2067 1 -11.6196 11.5674 -7.39458 0.000995034 1 
2068 1 30.5413 11.6327 -5.94901 0.0212202 1 
2069 1 -12.4346 13.9705 -6.0895 0.00811805 1 
2070 1 -11.6198 11.706 -4.54301 0.0155464 1 
2071 1 -9.94029 14.067 -4.64965 0.041643 1 
16095 1 -43.8908 53.8215 -5.25527 0.0168918 1 
2078 1 23.9194 1.8605 -14.0649 2.60764e-05 1 
2079 1 26.3989 1.93068 -12.6333 7.72517e-05 1 
2080 1 23.9195 2.00548 -11.2067 9.86814e-05 1 
2081 1 25.572 4.34024 -11.3297 0.000162203 1 
2082 1 26.3973 2.074 -9.77229 0.000611695 1 
2083 1 28.0521 4.40894 -9.90752 0.000507949 1 
2084 1 25.5707 4.48129 -8.47401 0.00107179 1 
2085 1 27.2253 6.82142 -8.60733 0.000868779 1 
2086 1 28.0521 4.54788 -7.06379 0.00357412 1 
2087 1 29.7117 6.89164 -7.1975 0.00408717 1 
2088 1 27.226 6.95783 -5.76957 0.0056752 1 
2089 1 28.881 9.3111 -5.89274 0.0174193 1 
2090 1 29.7198 7.02599 -4.39265 0.0443031 1 
2091 1 31.3765 9.36518 -4.43539 0.0255832 1 
2098 1 23.9192 2.15079 -8.34594 0.00080631 1 
2099 1 -39.7426 56.078 -6.79459 0.00239353 1 
2100 1 26.3919 2.21828 -6.90129 0.00708178 1 
2101 1 23.9164 2.29544 -5.47626 0.00809367 1 
2102 1 25.5727 4.6165 -5.61639 0.00759936 1 
2103 1 26.3786 2.37342 -4.00705 0.125993 1 
2104 1 28.072 4.67945 -4.23632 0.0348149 1 
2111 1 -42.2238 56.1557 -5.39795 0.013185 1 
2112 1 24.7358 0.0259605 -3.9455 0.0986443 1 
2850 1 -0.88111 37.0403 -12.9946 2.35161e-05 1 
2903 1 -3.36351 29.9535 -14.056 4.01605e-05 1 
2904 1 -1.70948 32.291 -14.1811 3.9525e-05 1 
2905 1 -4.18941 32.363 -12.7533 6.53404e-05 1 
2906 1 -2.53517 34.702 -12.8766 6.56033e-05 1 
2907 1 -1.70896 32.4373 -11.3266 0.000208277 1 
2908 1 -2.53389 34.8501 -10.0256 0.000329758 1 
2909 1 -0.878949 37.1894 -10.1399 9.09916e-05 1 
2910 1 -0.876268 37.3419 -7.28535 0.0011488 1 
2955 1 -6.66985 25.2829 -13.8059 2.75278e-05 1 
2956 1 -5.0165 27.6177 -13.93 2.91212e-05 1 
2957 1 -7.49578 27.6894 -12.5019 4.82383e-05 1 
2958 1 -5.8428 30.0256 -12.626 5.90721e-05 1 
2959 1 -5.01712 27.763 -11.0673 0.000107674 1 
2960 1 -3.36483 30.0984 -11.1972 0.000210501 1 
2961 1 -5.84383 30.1713 -9.76363 0.000577492 1 
2962 1 -4.1896 32.5087 -9.89952 0.000348602 1 
2963 1 -3.36906 30.2435 -8.3384 0.00178155 1 
2964 1 -1.70696 32.5846 -8.4779 0.00178814 1 
2965 1 -4.18949 32.6549 -7.05193 0.00306476 1 
2966 1 -2.53222 35.0009 -7.18385 0.00224982 1 
2967 1 -1.7024 32.7354 -5.64067 0.0193746 1 
2968 1 -2.52936 35.1568 -4.3648 0.0340057 1 
2969 1 -0.875957 37.4946 -4.42197 0.0200191 1 
3005 1 -12.4567 20.5443 -14.9932 5.04879e-05 1 
3007 1 -9.9764 20.617 -13.5587 0.000127356 1 
3008 1 -8.32361 22.9489 -13.6818 3.81581e-05 1 
3009 1 -10.8046 23.0209 -12.2484 0.00016542 1 
3010 1 -9.15017 25.3538 -12.3765 7.08128e-05 1 
3011 1 -8.3249 23.0938 -10.8173 0.000157449 1 
3012 1 -6.67051 25.4282 -10.9426 8.32981e-05 1 
3013 1 -9.15148 25.4984 -9.51547 0.000333219 1 
3014 1 -7.49595 27.8354 -9.6423 0.000283083 1 
3015 1 -6.67295 25.5764 -8.07823 0.000667932 1 
3016 1 -5.01994 27.9113 -8.20224 0.000869837 1 
3017 1 -7.49965 27.9832 -6.78451 0.00252083 1 
3018 1 -5.84852 30.3207 -6.89115 0.00714165 1 
3019 1 -5.03649 28.0716 -5.33571 0.0146254 1 
3020 1 -3.37937 30.3912 -5.47928 0.0150454 1 
3021 1 -5.86128 30.4848 -3.99609 0.127105 1 
3022 1 -4.16962 32.7977 -4.22076 0.0363039 1 
3053 1 -15.764 15.8787 -14.7615 4.42698e-05 1 
3054 1 -14.1101 18.2119 -14.8771 2.48507e-05 1 
3055 1 -13.2819 15.9516 -13.3315 6.49934e-05 1 
3056 1 -11.6285 18.2851 -13.4436 5.03269e-05 1 
3057 1 -14.1095 18.3588 -12.0149 0.000113484 1 
3058 1 -12.4567 20.6909 -12.1267 0.000212136 1 
3059 1 -11.6262 18.4328 -10.5799 0.000210507 1 
3060 1 -9.97684 20.7638 -10.6886 0.000735313 1 
3061 1 -12.4573 20.8402 -9.25649 0.00126523 1 
3062 1 -10.808 23.1663 -9.37972 0.000868597 1 
3063 1 -9.98046 20.9159 -7.8097 0.00591673 1 
3064 1 -8.32845 23.2398 -7.9558 0.00253182 1 
3065 1 -10.8139 23.3159 -6.50327 0.00623662 1 
3066 1 -9.15365 25.6424 -6.65623 0.00424123 1 
3067 1 -8.3147 23.3727 -5.11037 0.055764 1 
3068 1 -6.68144 25.7261 -5.2075 0.0458939 1 
3069 1 -9.16219 25.7817 -3.82486 7.11388 5 
3070 1 -7.50165 28.1279 -3.93628 0.101994 1 
3093 1 25.5718 11.2103 -14.5342 5.5939e-05 1 
3094 1 27.2245 13.5453 -14.6463 6.32564e-05 1 
3095 1 28.0523 11.2832 -13.1059 8.82083e-05 1 
3096 1 -14.9361 13.6175 -13.2181 6.28926e-05 1 
3097 1 27.2241 13.6935 -11.7835 0.000345595 1 
3098 1 -15.7642 16.0251 -11.9004 0.000340071 1 
3099 1 -14.9344 13.7625 -10.3603 0.00041259 1 
3100 1 -13.2789 16.0974 -10.4734 0.000390823 1 
3101 1 -15.7639 16.1681 -9.04454 0.00384177 1 
3102 1 -14.1077 18.5056 -9.1569 0.000797084 1 
3103 1 -13.2713 16.2397 -7.62405 0.00238721 1 
3104 1 -11.6234 18.5838 -7.71941 0.00179802 1 
3105 1 -14.0982 18.6505 -6.31025 0.00675688 1 
3106 1 -12.4585 20.9969 -6.37688 0.00882805 1 
3107 1 -11.6131 18.7453 -4.86702 0.0244707 1 
3108 1 -9.99156 21.0845 -4.90591 0.0631946 1 
3109 1 -12.471 21.1725 -3.47939 0.23097 1 
3110 1 -10.8153 23.488 -3.62173 0.0796761 1 
3125 1 22.2661 6.53569 -14.3057 2.95362e-05 1 
3126 1 23.919 8.87318 -14.4216 4.70209e-05 1 
3127 1 24.7458 6.60749 -12.8778 8.23754e-05 1 
3128 1 26.399 8.94609 -12.9942 0.000106326 1 
3129 1 23.9197 9.01982 -11.566 0.000198719 1 
3130 1 25.5722 11.3588 -11.6755 0.000230265 1 
3131 1 26.3992 9.09266 -10.142 0.000374042 1 
3132 1 28.0532 11.4311 -10.2497 0.000395753 1 
3133 1 25.5729 11.5078 -8.81781 0.00105969 1 
3134 1 27.2226 13.8421 -8.91771 0.00244732 1 
3135 1 28.0541 11.5786 -7.39662 0.0031992 1 
3136 1 -14.9294 13.899 -7.50745 0.00387819 1 
3137 1 27.2203 13.9897 -6.04531 0.0192828 1 
3138 1 -15.754 16.2953 -6.20523 0.0350671 1 
3139 1 -14.9135 14.0144 -4.66144 0.0501217 1 
3140 1 -13.2669 16.3704 -4.78682 0.026027 1 
16078 1 -42.2172 55.7168 -13.9453 3.87625e-05 1 
3142 1 -14.0883 18.773 -3.48579 0.0956212 1 
3149 1 18.9577 1.8632 -14.0722 4.39351e-05 1 
3150 1 20.6127 4.19913 -14.1892 1.8402e-05 1 
3151 1 21.4393 1.93477 -12.6406 5.0856e-05 1 
3152 1 23.0929 4.27048 -12.7579 5.1377e-05 1 
3153 1 20.6142 4.34469 -11.3326 6.98487e-05 1 
3154 1 22.2674 6.68087 -11.4486 0.000153688 1 
3155 1 23.093 4.41514 -9.89871 0.000387184 1 
3156 1 24.7455 6.75131 -10.0245 0.000406525 1 
3157 1 22.2692 6.82347 -8.58729 0.0015651 1 
3158 1 23.9203 9.16453 -8.71473 0.00138087 1 
3159 1 24.7448 6.88887 -7.17574 0.00345909 1 
3160 1 26.3993 9.23664 -7.29479 0.00174806 1 
3161 1 23.9217 9.3 -5.87963 0.0182737 1 
3162 1 25.5742 11.6544 -5.96403 0.00915511 1 
3163 1 26.4021 9.36074 -4.44716 0.0314587 1 
3164 1 28.0411 11.7427 -4.54718 0.0542683 1 
3171 1 18.9577 2.00915 -11.2192 0.000212148 1 
3172 1 21.44 2.08076 -9.78555 0.000256187 1 
3173 1 18.9582 2.15602 -8.37039 0.00176615 1 
3174 1 20.6167 4.48989 -8.47175 0.00079258 1 
3175 1 21.4418 2.22902 -6.93132 0.00229741 1 
3176 1 23.0926 4.55848 -7.03167 0.00318161 1 
3177 1 20.6199 4.63218 -5.59656 0.00817618 1 
3178 1 22.2708 6.95939 -5.70995 0.0196132 1 
3179 1 23.0923 4.69895 -4.14758 0.0340707 1 
3180 1 24.7519 7.00148 -4.33634 0.0443661 1 
3187 1 -44.7073 56.0825 -6.83142 0.0108666 1 
3188 1 -47.2008 56.1537 -5.38689 0.0157257 1 
3189 1 18.9682 2.30284 -5.52736 0.0162311 1 
3190 1 19.7601 0.0309539 -4.03108 0.163057 1 
3191 1 21.4581 2.36484 -4.07171 0.0162617 1 
4037 1 -45.5237 44.0498 -13.349 0.000121199 1 
4098 1 -3.36258 36.966 -14.4244 2.33781e-05 1 
4099 1 -1.70893 39.3032 -14.542 1.3784e-05 1 
4100 1 -4.19021 39.3775 -13.1157 3.29403e-05 1 
4101 1 -47.1785 41.714 -13.2337 6.91013e-05 1 
4102 1 -1.70763 39.4521 -11.6865 3.97812e-05 1 
4103 1 -47.1786 41.864 -10.3825 0.000540135 1 
4104 1 -45.5225 44.201 -10.4963 0.000659756 1 
4105 1 -45.5217 44.3549 -7.65339 0.00411548 1 
4161 1 -6.66916 32.2895 -14.1812 2.44068e-05 1 
4162 1 -5.016 34.6277 -14.3043 3.04207e-05 1 
4163 1 -7.4956 34.6998 -12.8765 4.73646e-05 1 
4164 1 -5.84298 37.0393 -12.9974 3.90818e-05 1 
4165 1 -5.01544 34.7745 -11.4506 0.000107472 1 
4166 1 -3.36154 37.1145 -11.5707 9.22017e-05 1 
4167 1 -5.84204 37.1878 -10.1445 0.000135658 1 
4168 1 -4.1899 39.5278 -10.2619 0.000192367 1 
4169 1 -3.36016 37.2654 -8.72144 0.000653728 1 
4170 1 -1.7057 39.6019 -8.83108 0.000927735 1 
4171 1 -4.18961 39.6816 -7.41068 0.00233045 1 
4172 1 -47.1801 42.0146 -7.54545 0.0078512 1 
4173 1 -1.70347 39.7508 -5.96525 0.0227371 1 
4174 1 -47.1814 42.1685 -4.75359 0.11219 1 
4175 1 -45.5302 44.5109 -4.82446 0.0370982 1 
4225 1 -9.97602 27.616 -13.9341 4.15938e-05 1 
4226 1 -8.32216 29.9525 -14.0575 1.73347e-05 1 
4227 1 -10.8018 30.0239 -12.6312 4.65768e-05 1 
4228 1 -9.14828 32.3614 -12.7529 2.65222e-05 1 
4229 1 -8.32152 30.0977 -11.1986 6.93584e-05 1 
4230 1 -6.66888 32.4346 -11.3241 0.000105176 1 
4231 1 -9.14725 32.5066 -9.89391 0.000230183 1 
4232 1 -7.49461 34.845 -10.0226 0.000248251 1 
4233 1 -6.66907 32.5791 -8.4668 0.000814197 1 
4234 1 -5.01505 34.9219 -8.60092 0.00044398 1 
4235 1 -7.49311 34.9866 -7.17199 0.00235739 1 
4236 1 -5.83952 37.3368 -7.29358 0.00100159 1 
4237 1 -5.0139 35.0687 -5.7566 0.00441043 1 
4238 1 -3.35949 37.4219 -5.88188 0.00993942 1 
4239 1 -5.83246 37.4765 -4.43806 0.0295777 1 
4240 1 -4.19415 39.849 -4.56214 0.0520965 1 
4286 1 -13.2843 22.949 -13.681 0.000123896 1 
4287 1 -11.6305 25.281 -13.8078 5.86187e-05 1 
4288 1 -14.1119 25.3526 -12.3745 0.000141684 1 
4289 1 -12.4572 27.6867 -12.5063 0.000146031 1 
4290 1 -11.6321 25.4243 -10.9463 0.000302727 1 
4291 1 -9.97608 27.7602 -11.0768 0.000214318 1 
4292 1 -12.4595 27.8298 -9.65315 0.00119449 1 
4293 1 -10.8006 30.1692 -9.77591 0.000246699 1 
4294 1 -9.9766 27.905 -8.22499 0.00172738 1 
4295 1 -8.3208 30.2447 -8.33762 0.000704343 1 
4296 1 -10.7978 30.3184 -6.92244 0.00220435 1 
4297 1 -9.14608 32.6519 -7.02804 0.00216918 1 
4298 1 -8.32207 30.3935 -5.46826 0.00820159 1 
4299 1 -6.66604 32.7221 -5.60663 0.00626541 1 
4300 1 -9.14414 32.796 -4.14687 0.0284552 1 
4301 1 -7.48596 35.1106 -4.32888 0.031096 1 
4338 1 -19.0713 18.2118 -14.875 3.44777e-05 1 
4339 1 -17.4178 20.5445 -14.9944 1.76169e-05 1 
4340 1 -16.5913 18.2853 -13.4452 6.79602e-05 1 
4341 1 -14.9374 20.6178 -13.5617 5.46544e-05 1 
4342 1 -17.4185 20.6908 -12.1296 8.23342e-05 1 
4343 1 -15.7652 23.0222 -12.2468 0.000287629 1 
4344 1 -14.9379 20.7653 -10.6959 0.000271108 1 
4345 1 -13.2865 23.0946 -10.8118 0.000683071 1 
4346 1 -15.7677 23.1691 -9.37275 0.00197664 1 
4347 1 -14.1154 25.4956 -9.50781 0.000740136 1 
4348 1 -13.2917 23.2427 -7.93335 0.00432336 1 
4349 1 -11.6359 25.567 -8.0876 0.00242709 1 
4350 1 -14.1242 25.64 -6.63384 0.00516824 1 
4351 1 -12.4647 27.9741 -6.81599 0.0132609 1 
4352 1 -11.646 25.7131 -5.23768 0.0194259 1 
4353 1 -9.9793 28.0566 -5.38741 0.013787 1 
4354 1 -12.4781 28.1179 -4.02202 0.184027 1 
4355 1 -10.7798 30.4586 -4.06332 0.0171604 1 
4382 1 22.2659 13.546 -14.6459 6.08703e-05 1 
4383 1 23.9183 15.8796 -14.7579 7.32539e-05 1 
4384 1 24.7451 13.6202 -13.2131 0.000144537 1 
4385 1 -18.2446 15.9529 -13.3257 0.000209728 1 
4386 1 23.9193 16.0273 -11.889 0.000294642 1 
4387 1 -19.072 18.3577 -12.0081 0.000167249 1 
4388 1 -18.2457 16.0998 -10.4543 0.00193683 1 
4389 1 -16.5924 18.4315 -10.584 0.000807915 1 
4390 1 -19.0744 18.5013 -9.13825 0.00174401 1 
4391 1 -17.4197 20.8382 -9.26601 0.00116806 1 
4392 1 -16.5931 18.5741 -7.73486 0.0120445 1 
4393 1 -14.9375 20.9149 -7.82942 0.00193294 1 
4394 1 -17.4198 20.9852 -6.41068 0.0144675 1 
4395 1 -15.7733 23.32 -6.48324 0.0144329 1 
4396 1 -14.9343 21.065 -4.96592 0.0163297 1 
4397 1 -13.3029 23.4019 -5.03593 0.0455318 1 
4398 1 -15.7837 23.4815 -3.57013 0.292983 1 
4399 1 -14.1345 25.8149 -3.74923 0.0815982 1 
4418 1 18.9593 8.87402 -14.4237 2.10255e-05 1 
4419 1 20.6127 11.2104 -14.5359 2.66352e-05 1 
4420 1 21.4403 8.94655 -12.9937 5.21453e-05 1 
4421 1 23.0929 11.2845 -13.1049 0.000107601 1 
4422 1 20.6153 11.3572 -11.6775 0.0001141 1 
4423 1 22.2683 13.6942 -11.7804 0.000417345 1 
4424 1 23.0946 11.4331 -10.246 0.000678612 1 
4425 1 24.7453 13.7697 -10.345 0.000715117 1 
4426 1 22.2733 13.8441 -8.90609 0.00435958 1 
4427 1 23.9218 16.1761 -9.01206 0.00115937 1 
4428 1 24.7449 13.9211 -7.46727 0.00397581 1 
4429 1 -18.2461 16.2457 -7.56589 0.0209663 1 
4430 1 23.9273 16.326 -6.12333 0.00679098 1 
4431 1 -19.0812 18.6419 -6.26534 0.015845 1 
4432 1 -18.2371 16.3928 -4.64708 0.27195 1 
4433 1 -16.5886 18.6947 -4.93385 0.14427 1 
4435 1 -17.4105 21.1204 -3.5853 0.212676 1 
4446 1 15.6495 4.20108 -14.1947 5.56744e-05 1 
4447 1 17.3051 6.53762 -14.3105 4.11967e-05 1 
4448 1 18.1324 4.2731 -12.7654 4.73994e-05 1 
4449 1 19.7873 6.60941 -12.88 5.59937e-05 1 
4450 1 17.3078 6.68319 -11.4579 0.000186528 1 
4451 1 18.962 9.01981 -11.5676 5.24372e-05 1 
4452 1 19.7913 6.75393 -10.0242 0.000313279 1 
4453 1 21.4426 9.09152 -10.1372 0.000257982 1 
4454 1 18.9664 9.16342 -8.71095 0.000292135 1 
4455 1 20.6196 11.5029 -8.82147 0.00108206 1 
4456 1 21.4449 9.2316 -7.28104 0.00249959 1 
4457 1 23.0978 11.5821 -7.39042 0.00591989 1 
4458 1 20.6271 11.645 -5.97798 0.0167779 1 
4459 1 22.2835 13.9983 -6.00696 0.0526763 1 
4460 1 23.1111 11.7277 -4.54703 0.0613434 1 
4461 1 24.7469 14.0777 -4.56989 0.0338132 1 
16094 1 -43.0555 51.4242 -6.52727 0.00650361 1 
4468 1 13.9932 1.86494 -14.0744 3.02203e-05 1 
4469 1 16.475 1.93708 -12.6479 0.000115989 1 
4470 1 13.9908 2.01089 -11.2201 0.000167706 1 
4471 1 15.6503 4.34659 -11.3439 0.000292224 1 
4472 1 16.4735 2.08218 -9.79819 0.000996254 1 
4473 1 18.1356 4.4184 -9.91104 0.000427928 1 
4474 1 15.6535 4.49048 -8.49983 0.00229395 1 
4475 1 17.3137 6.82638 -8.60955 0.00148528 1 
4476 1 18.1432 4.56193 -7.04851 0.00759854 1 
4477 1 19.7984 6.89524 -7.16696 0.00231353 1 
4478 1 17.3237 6.96654 -5.77149 0.013628 1 
4479 1 18.9696 9.30651 -5.85045 0.00418379 1 
4480 1 19.7983 7.03738 -4.31406 0.0374502 1 
4481 1 21.4404 9.35537 -4.42101 0.0376278 1 
4488 1 13.986 2.15604 -8.36601 0.0015106 1 
4489 1 -49.6807 56.0956 -6.79237 0.00965841 1 
4490 1 16.4727 2.22463 -6.96086 0.0135487 1 
4491 1 13.9758 2.30335 -5.51045 0.0133902 1 
4492 1 15.6603 4.63149 -5.66794 0.0212093 1 
4493 1 16.4787 2.35937 -4.17051 0.181546 1 
4494 1 18.1479 4.69467 -4.16318 0.158985 1 
4501 1 -52.1765 56.1837 -5.37488 0.0165998 1 
4502 1 14.774 0.0616649 -3.91325 0.228643 1 
5432 1 -45.5265 51.0515 -13.7031 9.07179e-05 1 
5505 1 -48.007 43.975 -14.7802 4.61989e-05 1 
5506 1 -46.3524 46.3099 -14.8968 5.24624e-05 1 
5507 1 -48.8367 46.3848 -13.4719 0.000110607 1 
5508 1 -47.1813 48.7193 -13.5884 9.18608e-05 1 
5509 1 -46.353 46.4605 -12.0416 0.000260258 1 
5510 1 -47.184 48.8725 -10.7339 0.000525604 1 
5511 1 -45.529 51.2019 -10.8401 0.000733163 1 
5512 1 -45.5343 51.3576 -7.96674 0.00721657 1 
5577 1 -6.67146 39.3026 -14.5429 1.86758e-05 1 
5578 1 -5.01893 41.6393 -14.6615 2.49992e-05 1 
5579 1 -7.50068 41.7132 -13.2305 6.04705e-05 1 
5580 1 -50.4908 44.0492 -13.3512 6.50541e-05 1 
5581 1 -5.02037 41.789 -11.8058 0.000126433 1 
5582 1 -48.0085 44.1251 -11.9262 0.000214872 1 
5583 1 -50.4949 44.1999 -10.4948 0.000277206 1 
5584 1 -48.8412 46.5369 -10.62 0.00055313 1 
5585 1 -48.0124 44.2783 -9.07843 0.00107508 1 
5586 1 -46.3554 46.6153 -9.19426 0.00185627 1 
5587 1 -48.8506 46.6938 -7.77673 0.00311137 1 
5588 1 -47.1893 49.0342 -7.88612 0.00408998 1 
5589 1 -46.3583 46.7773 -6.37105 0.021191 1 
5590 1 -47.199 49.2159 -5.05384 0.0336287 1 
5591 1 -45.5453 51.5253 -5.0654 0.070691 1 
5650 1 -9.97582 34.626 -14.3041 2.07423e-05 1 
5651 1 -8.32358 36.9645 -14.4244 2.3522e-05 1 
5652 1 -10.8027 37.0364 -12.9961 3.84716e-05 1 
5653 1 -9.15142 39.3755 -13.1136 4.26491e-05 1 
5654 1 -8.32231 37.1112 -11.5697 0.000100796 1 
5655 1 -6.67128 39.4515 -11.6869 8.36331e-05 1 
5656 1 -9.14961 39.5233 -10.2571 0.000234672 1 
5657 1 -7.50215 41.863 -10.37 0.000444944 1 
5658 1 -6.67059 39.6017 -8.83115 0.000543071 1 
5659 1 -5.0247 41.9412 -8.9518 0.000982889 1 
5660 1 -7.50412 42.0139 -7.5014 0.00396166 1 
5661 1 -50.5022 44.3534 -7.63797 0.00111649 1 
5662 1 -5.0363 42.0985 -6.09861 0.0098413 1 
5663 1 -48.0212 44.4371 -6.24036 0.00696789 1 
5664 1 -50.5065 44.5093 -4.77641 0.00504049 1 
5665 1 -48.8672 46.8501 -4.95041 0.021071 1 
5666 1 -48.014 44.6023 -3.39685 0.157592 1 
5667 1 -46.3658 46.9424 -3.61685 0.266005 1 
5723 1 -13.283 29.9509 -14.0608 5.14542e-05 1 
5724 1 -11.6288 32.2883 -14.183 1.49776e-05 1 
5725 1 -14.1085 32.3597 -12.757 4.68643e-05 1 
5726 1 -12.4546 34.6978 -12.8772 5.24561e-05 1 
5727 1 -11.6268 32.4328 -11.3265 4.71429e-05 1 
5728 1 -9.97385 34.771 -11.4477 9.58311e-05 1 
5729 1 -12.4503 34.8416 -10.0224 0.000286741 1 
5730 1 -10.7997 37.181 -10.1411 0.000179823 1 
5731 1 -9.97063 34.914 -8.5885 0.000927637 1 
5732 1 -8.31972 37.2567 -8.7183 0.000825748 1 
5733 1 -10.7952 37.3208 -7.28752 0.0017259 1 
5734 1 -9.14427 39.6701 -7.40195 0.00211229 1 
5735 1 -8.31373 37.3945 -5.87952 0.0129272 1 
5736 1 -6.66754 39.7505 -5.97373 0.00700054 1 
5737 1 -9.12325 39.8094 -4.54884 0.0235368 1 
5738 1 -7.5025 42.1606 -4.60758 0.0373153 1 
5789 1 -16.5912 25.2813 -13.8056 6.28599e-05 1 
5790 1 -14.9377 27.6147 -13.934 6.32083e-05 1 
5791 1 -17.4186 27.6863 -12.5013 0.000135391 1 
5792 1 -15.7642 30.0217 -12.633 0.000155419 1 
5793 1 -14.9397 27.7569 -11.0753 0.000336504 1 
5794 1 -13.2826 30.0946 -11.2067 0.000251785 1 
5795 1 -15.7651 30.1632 -9.78171 0.00124586 1 
5796 1 -14.105 32.5033 -9.9027 0.000379125 1 
5797 1 -13.2819 30.2398 -8.35812 0.00201701 1 
5798 1 -11.6237 32.5777 -8.46663 0.000711922 1 
5799 1 -14.0972 32.6463 -7.04119 0.00735578 1 
5800 1 -12.4428 34.9829 -7.16751 0.00224882 1 
5801 1 -11.6197 32.7212 -5.59353 0.00859846 1 
5802 1 -9.96727 35.0511 -5.71666 0.0117161 1 
5803 1 -12.4433 35.1267 -4.31873 0.0352367 1 
5804 1 -10.7943 37.4437 -4.43385 0.0250964 1 
5845 1 -22.3778 20.544 -14.993 4.23184e-05 1 
5847 1 -19.8982 20.6167 -13.5612 2.66041e-05 1 
5848 1 -18.2445 22.9492 -13.6816 8.68574e-05 1 
5849 1 -20.7248 23.021 -12.2508 7.09261e-05 1 
5850 1 -19.0714 25.3533 -12.3742 6.81861e-05 1 
5851 1 -18.2449 23.0947 -10.8127 0.000725896 1 
5852 1 -16.5928 25.4251 -10.9392 0.000248666 1 
5853 1 -19.0726 25.4972 -9.509 0.000403787 1 
5854 1 -17.4215 27.8288 -9.63601 0.00119917 1 
5855 1 -16.5967 25.5702 -8.06695 0.00133435 1 
5856 1 -14.9458 27.8973 -8.21821 0.00254138 1 
5857 1 -17.4298 27.9739 -6.7577 0.0133913 1 
5858 1 -15.7655 30.3025 -6.94434 0.015641 1 
5859 1 -14.9578 28.0351 -5.36226 0.0182684 1 
5860 1 -13.2714 30.3873 -5.51708 0.0177 1 
5861 1 -15.7592 30.4355 -4.1568 0.200854 1 
5862 1 -14.092 32.7808 -4.15767 0.165844 1 
5894 1 18.9589 15.88 -14.7618 3.31079e-05 1 
5895 1 20.6117 18.2124 -14.8749 5.09115e-05 1 
5896 1 21.4403 15.9532 -13.3264 7.7641e-05 1 
5897 1 23.0916 18.2851 -13.4393 0.000207577 1 
5898 1 20.6135 18.359 -12.0078 0.000182683 1 
5899 1 -22.3782 20.689 -12.1257 0.000172238 1 
5900 1 23.0921 18.4314 -10.5652 0.00162104 1 
5901 1 -19.8993 20.7615 -10.696 0.000381854 1 