ITEM: TIMESTEP
0
ITEM: NUMBER OF ATOMS
3296
ITEM: BOX BOUNDS xy xz yz pp pp ss
-15.536496918 34.839417332 -15.536496918
0 53.004549461 0
-149.9867978869501 159.6100174728968 0
ITEM: ATOMS id type x y z c_csym c_cna 
10058 1 1.7683 52.8755 -11.6029 0.000151057 1 
10060 1 1.06099 50.9659 -13.6185 6.45848e-05 1 
10062 1 3.65078 51.2599 -14.8033 2.93334e-05 1 
10063 1 19.8943 0.164524 -12.7874 6.56778e-05 1 
10838 1 1.31275 51.504 -6.08753 0.0118544 1 
10839 1 0.600112 49.5969 -8.09555 0.00103847 1 
10840 1 0.828477 50.2807 -10.8535 0.000313997 1 
10841 1 1.53788 52.1921 -8.83877 0.00105397 1 
10842 1 3.19104 49.8901 -9.269 0.00174307 1 
10843 1 3.90275 51.8019 -7.2493 0.00346333 1 
10844 1 4.12758 52.4842 -10.0177 0.0004162 1 
10845 1 6.48271 52.0833 -8.4238 0.00102702 1 
10846 1 0.119638 48.3702 -12.8671 0.000127321 1 
10847 1 1.76855 46.0681 -13.2978 6.64811e-05 1 
10848 1 2.47867 47.9786 -11.2822 0.000212715 1 
10849 1 2.7101 48.6642 -14.0499 4.47656e-05 1 
10850 1 3.419 50.5741 -12.0343 0.000201363 1 
10851 1 5.06572 48.2711 -12.4616 0.000119991 1 
10852 1 5.77447 50.1783 -10.4406 0.000583901 1 
10853 1 6.00585 50.866 -13.2164 6.52551e-05 1 
10854 1 6.71267 52.7734 -11.2002 0.000142473 1 
10855 1 8.35893 50.4707 -11.6286 8.95742e-05 1 
10856 1 9.06552 52.3735 -9.60957 0.00095683 1 
10857 1 24.8355 0.0611661 -12.3867 0.000120408 1 
10858 1 11.6509 52.6686 -10.7966 0.000700195 1 
10864 1 4.35697 46.3618 -14.4802 3.3528e-05 1 
10868 1 7.65178 48.5641 -13.6475 4.63241e-05 1 
10870 1 8.59283 51.1594 -14.4033 2.61025e-05 1 
10871 1 10.239 48.8583 -14.8361 5.10343e-05 1 
10872 1 10.9451 50.765 -12.8167 0.000199236 1 
10874 1 27.4231 0.35606 -13.5743 0.000103449 1 
10875 1 13.5338 51.0613 -14.0092 5.77495e-05 1 
10876 1 14.239 52.967 -11.9899 0.000397228 1 
10877 1 32.3669 0.261008 -13.1834 6.87103e-05 1 
11618 1 1.80547 52.7513 -1.53017 12.3622 5 
11619 1 0.251734 48.2375 -2.53046 3.41306 5 
11620 1 0.389191 48.9107 -5.33835 0.0294304 1 
11621 1 1.126 50.8079 -3.35168 1.63726 5 
11622 1 2.79823 48.5816 -3.7812 0.63315 1 
11623 1 3.46436 50.4613 -1.559 6.80593 5 
11624 1 3.68951 51.1495 -4.4727 0.0822375 1 
11625 1 19.9714 0.074615 -2.39932 6.39119 5 
11626 1 5.96072 50.6358 -2.86466 6.14017 5 
11627 1 6.72228 52.397 -0.982842 12.4522 5 
11628 1 22.472 0.318577 -3.64454 0.277939 1 
11629 1 9.25333 52.8896 -2.12395 3.75427 5 
11630 1 1.31089 44.7026 -7.76875 0.00279021 1 
11631 1 2.03056 46.6133 -5.74128 0.0292188 1 
11632 1 2.25053 47.2944 -8.5153 0.00128396 1 
11633 1 2.9683 49.2136 -6.51497 0.0205935 1 
11634 1 4.60502 46.8994 -6.90302 0.0156808 1 
11635 1 5.32764 48.7928 -4.85929 0.284025 1 
11636 1 5.54335 49.4906 -7.65436 0.00800286 1 
11637 1 6.25521 51.3975 -5.63666 0.0181747 1 
11638 1 7.88826 49.091 -6.08771 0.0207146 1 
11639 1 8.58658 50.9654 -4.02937 0.0767671 1 
11640 1 8.83587 51.6756 -6.82211 0.010298 1 
11641 1 11.1957 51.2971 -5.1829 0.0851106 1 
11642 1 27.4815 0.205263 -3.12574 0.773224 1 
11643 1 0.593233 42.7864 -9.7824 0.000587049 1 
11644 1 0.825799 43.471 -12.5459 9.76331e-05 1 
11645 1 1.53738 45.3834 -10.5321 0.000325843 1 
11646 1 3.18143 43.0794 -10.9571 0.000266571 1 
11647 1 3.89423 44.9912 -8.93636 0.00132334 1 
11648 1 4.1244 45.6759 -11.7092 0.000150034 1 
11649 1 4.83475 47.5854 -9.68618 0.000783782 1 
11650 1 6.47609 45.2821 -10.119 0.000178131 1 
11651 1 7.18089 47.1862 -8.09119 0.0015432 1 
11652 1 7.41781 47.8761 -10.8715 0.000161571 1 
11653 1 8.12596 49.7814 -8.85183 0.00126567 1 
11654 1 9.76495 47.4825 -9.278 0.00227841 1 
11655 1 10.4735 49.386 -7.23909 0.0132133 1 
11656 1 10.709 50.0743 -10.0359 0.00141931 1 
11657 1 11.4167 51.9711 -8.00835 0.00614265 1 
11658 1 13.0576 49.6835 -8.4595 0.00375019 1 
11659 1 13.7641 51.5658 -6.40567 0.0426747 1 
11660 1 14.0004 52.2734 -9.2085 0.00410032 1 
11661 1 16.3601 51.8899 -7.65584 0.0089319 1 
11662 1 0.116716 41.5595 -14.5584 1.88223e-05 1 
11663 1 1.76328 39.2565 -14.9882 1.17456e-05 1 
11664 1 2.47088 41.1676 -12.974 5.4953e-05 1 
11666 1 3.41467 43.7652 -13.7271 4.52446e-05 1 
11667 1 5.05962 41.4622 -14.1594 2.61651e-05 1 
11668 1 5.76765 43.3728 -12.1409 7.61658e-05 1 
11669 1 6.00244 44.0593 -14.9124 2.17828e-05 1 
11670 1 6.71012 45.9688 -12.8936 6.05964e-05 1 
11671 1 8.35429 43.6666 -13.3289 7.17245e-05 1 
11672 1 9.06035 45.5759 -11.3074 0.000287371 1 
11673 1 9.29686 46.2627 -14.0821 6.16633e-05 1 
11674 1 10.0029 48.1703 -12.0608 0.000315697 1 
11675 1 11.6479 45.8701 -12.5023 0.000140348 1 
11676 1 12.3528 47.7783 -10.4835 0.000325488 1 
11677 1 12.5913 48.4658 -13.2554 7.14287e-05 1 
11678 1 13.2966 50.3727 -11.236 0.000401965 1 
11679 1 14.9459 48.0745 -11.6798 0.000203265 1 
11680 1 15.6526 49.9831 -9.66816 0.00167804 1 
11681 1 15.8886 50.6701 -12.4313 0.000165702 1 
11682 1 16.5949 52.5784 -10.4153 0.0007011 1 
11683 1 18.2482 50.2807 -10.8535 0.000313997 1 
11684 1 18.9576 52.1921 -8.83877 0.00105397 1 
11685 1 19.188 52.8755 -11.6029 0.000151057 1 
11686 1 -13.2921 52.4842 -10.0177 0.0004162 1 
11700 1 10.9428 43.9607 -14.5196 4.54594e-05 1 
11704 1 14.2396 46.1652 -13.6948 9.58948e-05 1 
11706 1 15.1823 48.7613 -14.4466 4.1243e-05 1 
11707 1 16.8314 46.4599 -14.8812 4.70964e-05 1 
11708 1 17.5393 48.3702 -12.8671 0.000127321 1 
11710 1 18.4807 50.9659 -13.6185 6.45848e-05 1 
11711 1 20.1298 48.6642 -14.0499 4.47656e-05 1 
11712 1 -14.0007 50.5741 -12.0343 0.000201363 1 
11713 1 -13.7689 51.2599 -14.8033 2.93334e-05 1 
11714 1 2.47456 0.164524 -12.7874 6.56778e-05 1 
11715 1 -11.4139 50.866 -13.2164 6.52551e-05 1 
11716 1 -10.707 52.7734 -11.2002 0.000142473 1 
11717 1 7.4158 0.0611661 -12.3867 0.000120408 1 
11748 1 -8.82688 51.1594 -14.4033 2.61025e-05 1 
11751 1 10.0034 0.35606 -13.5743 0.000103449 1 
12395 1 0.904978 43.3381 -2.13822 5.36484 5 
12396 1 1.79846 45.8909 -2.99578 7.48996 5 
12397 1 2.59447 47.7957 -1.22647 11.2409 5 
12398 1 4.08968 45.3987 -1.27943 7.63849 5 
12399 1 5.25149 48.1295 -1.63435 7.69904 5 
12400 1 7.84227 47.5744 -0.752261 12.1758 5 
12401 1 8.45718 50.1917 -1.15458 9.49312 5 
12402 1 11.4218 52.5103 -0.469512 12.1837 5 
12403 1 0.137456 41.4602 -4.2601 0.144318 1 
12404 1 0.360451 42.1042 -7.02559 0.00494144 1 
12405 1 1.07667 44.0206 -5.01092 0.0401575 1 
12406 1 2.70741 41.7015 -5.42349 0.0244065 1 
12407 1 3.41691 43.613 -3.4546 0.238003 1 
12408 1 3.66912 44.3307 -6.15327 0.03571 1 
12409 1 4.39729 46.2753 -4.03969 0.481534 1 
12410 1 6.00916 43.9078 -4.58276 0.0382985 1 
12411 1 6.71969 45.7779 -2.48272 6.84062 5 
12412 1 6.94038 46.4902 -5.29422 0.0416979 1 
12413 1 7.64701 48.4227 -3.326 6.57654 5 
12414 1 9.26968 46.1493 -3.60061 5.67837 5 
12415 1 10.6295 47.9079 -0.665496 9.24294 5 
12416 1 10.2325 48.6796 -4.46417 1.51039 5 
12417 1 10.8879 50.5129 -2.41436 6.69707 5 
12418 1 12.5703 48.2867 -2.81857 2.98417 5 
12419 1 13.5405 50.8277 -3.56333 0.86891 5 
12420 1 16.0658 50.4885 -2.17702 4.44756 5 
12421 1 32.3375 0.109559 -2.70894 5.60792 5 
12422 1 19.2252 52.7513 -1.53017 12.3622 5 
12423 1 1.28715 37.8817 -9.45329 0.000358242 1 
12424 1 1.98939 39.7928 -7.43514 0.00435218 1 
12425 1 2.23415 40.4821 -10.2046 0.000566943 1 
12426 1 2.94945 42.3993 -8.18411 0.00331968 1 
12427 1 4.58371 40.0904 -8.62879 0.00235433 1 
12428 1 5.29413 41.9992 -6.59422 0.004099 1 
12429 1 5.53369 42.6871 -9.36733 0.00040419 1 
12430 1 6.24475 44.5959 -7.34151 0.00293535 1 
12431 1 7.88279 42.2962 -7.774 0.00340355 1 
12432 1 8.59589 44.2184 -5.72823 0.0385314 1 
12433 1 8.8229 44.8871 -8.52845 0.00194537 1 
12434 1 9.51572 46.7847 -6.48901 0.0282675 1 
12435 1 11.1619 44.4942 -6.94766 0.00799139 1 
12436 1 11.8627 46.4197 -4.95179 0.0707232 1 
12437 1 12.1097 47.0916 -7.71234 0.00195877 1 
12438 1 12.8129 48.9964 -5.68048 0.0413927 1 
12439 1 14.4643 46.6965 -6.15446 0.0247896 1 
12440 1 15.1838 48.6446 -4.24375 0.479024 1 
12441 1 15.425 49.3029 -6.92009 0.0241341 1 
12442 1 16.1544 51.2283 -4.8961 0.134684 1 
12443 1 17.8089 48.9107 -5.33835 0.0294304 1 
12444 1 18.5457 50.8079 -3.35168 1.63726 5 
12445 1 18.7325 51.504 -6.08753 0.0118544 1 
12446 1 -13.7302 51.1495 -4.4727 0.0822375 1 
12447 1 2.5517 0.074615 -2.39932 6.39119 5 
12448 1 5.05231 0.318577 -3.64454 0.277939 1 
12449 1 0.582858 35.9699 -11.4634 6.51624e-05 1 
12450 1 0.820423 36.6582 -14.2322 1.39292e-05 1 
12451 1 1.52636 38.5692 -12.2202 6.44449e-05 1 
12452 1 3.17342 36.2647 -12.6512 3.60465e-05 1 
12453 1 3.87768 38.1761 -10.6405 0.00019064 1 
12454 1 4.11628 38.864 -13.4062 3.25587e-05 1 
12455 1 4.82333 40.776 -11.391 0.00017684 1 
12456 1 6.46815 38.4709 -11.8248 0.000161335 1 
12457 1 7.17255 40.3835 -9.8057 0.00116406 1 
12458 1 7.41121 41.0695 -12.5768 0.000124298 1 
12459 1 8.11754 42.9796 -10.5552 0.000326941 1 
12460 1 9.76156 40.6772 -11.0009 0.000667356 1 
12461 1 10.4638 42.5877 -8.97552 0.00306457 1 
12462 1 10.7044 43.274 -11.7499 0.000292288 1 
12463 1 11.407 45.1829 -9.72961 0.000869705 1 
12464 1 13.0574 42.8836 -10.1839 0.0015822 1 
12465 1 13.7596 44.7968 -8.17353 0.00322118 1 
12466 1 14.0017 45.4799 -10.9309 0.000539746 1 
12467 1 14.7083 47.3886 -8.91514 0.00139783 1 
12468 1 16.3636 45.0919 -9.36172 0.00277773 1 
12469 1 17.0794 47.0064 -7.34892 0.00635655 1 
12470 1 17.3068 47.6855 -10.1049 0.000722664 1 
12471 1 18.0198 49.5969 -8.09555 0.00103847 1 
12472 1 19.6702 47.2944 -8.5153 0.00128396 1 
12473 1 20.388 49.2136 -6.51497 0.0205935 1 
12474 1 -14.2287 49.8901 -9.269 0.00174307 1 
12475 1 -13.517 51.8019 -7.2493 0.00346333 1 
12476 1 -11.8764 49.4906 -7.65436 0.00800286 1 
12477 1 -11.1645 51.3975 -5.63666 0.0181747 1 
12478 1 -10.937 52.0833 -8.4238 0.00102702 1 
12479 1 -8.58384 51.6756 -6.82211 0.010298 1 
12482 1 2.46881 34.3551 -14.6623 9.77306e-06 1 
12486 1 5.76369 36.5597 -13.837 2.20291e-05 1 
12488 1 6.70569 39.1585 -14.5924 2.58226e-05 1 
12490 1 9.05798 38.7648 -13.0126 0.000100009 1 
12492 1 10.0002 41.3634 -13.7669 8.67606e-05 1 
12493 1 11.6484 39.0588 -14.1996 5.69352e-05 1 
12494 1 12.3534 40.9701 -12.1915 0.000428989 1 
12495 1 12.5908 41.6574 -14.9553 5.93473e-05 1 
12496 1 13.2963 43.5685 -12.9436 0.000219579 1 
12497 1 14.9455 41.2644 -13.3755 8.25047e-05 1 
12498 1 15.6533 43.1768 -11.3675 0.00044266 1 
12499 1 15.8887 43.8628 -14.1291 7.75905e-05 1 
12500 1 16.597 45.7742 -12.1173 0.000299906 1 
12501 1 18.2455 43.471 -12.5459 9.76331e-05 1 
12502 1 18.9571 45.3834 -10.5321 0.000325843 1 
12503 1 19.1883 46.0681 -13.2978 6.64811e-05 1 
12504 1 19.8984 47.9786 -11.2822 0.000212715 1 
12505 1 -13.2953 45.6759 -11.7092 0.000150034 1 
12506 1 -12.585 47.5854 -9.68618 0.000783782 1 
12507 1 -12.354 48.2711 -12.4616 0.000119991 1 
12508 1 -11.6452 50.1783 -10.4406 0.000583901 1 
12509 1 -10.0019 47.8761 -10.8715 0.000161571 1 
12510 1 -9.29375 49.7814 -8.85183 0.00126567 1 
12511 1 -9.06078 50.4707 -11.6286 8.95742e-05 1 
12512 1 -8.35419 52.3735 -9.60957 0.00095683 1 
12513 1 -6.71072 50.0743 -10.0359 0.00141931 1 
12514 1 -6.00306 51.9711 -8.00835 0.00614265 1 
12515 1 -5.76882 52.6686 -10.7966 0.000700195 1 
12516 1 -3.41928 52.2734 -9.2085 0.00410032 1 
12538 1 17.5364 41.5595 -14.5584 1.88223e-05 1 
12542 1 20.8344 43.7652 -13.7271 4.52446e-05 1 
12544 1 -13.0627 46.3618 -14.4802 3.3528e-05 1 
12545 1 -11.4173 44.0593 -14.9124 2.17828e-05 1 
12546 1 -10.7096 45.9688 -12.8936 6.05964e-05 1 
12548 1 -9.76793 48.5641 -13.6475 4.63241e-05 1 
12549 1 -8.12285 46.2627 -14.0821 6.16633e-05 1 
12550 1 -7.41683 48.1703 -12.0608 0.000315697 1 
12551 1 -7.1807 48.8583 -14.8361 5.10343e-05 1 
12552 1 -6.47464 50.765 -12.8167 0.000199236 1 
12553 1 -4.82841 48.4658 -13.2554 7.14287e-05 1 
12554 1 -4.12314 50.3727 -11.236 0.000401965 1 
12555 1 -3.88592 51.0613 -14.0092 5.77495e-05 1 
12556 1 -3.18066 52.967 -11.9899 0.000397228 1 
12557 1 -1.53106 50.6701 -12.4313 0.000165702 1 
12558 1 -0.824776 52.5784 -10.4153 0.0007011 1 
12559 1 14.9472 0.261008 -13.1834 6.87103e-05 1 
12598 1 -2.23738 48.7613 -14.4466 4.1243e-05 1 
13147 1 3.30456 42.7093 -0.874362 12.9817 5 
13148 1 0.832456 36.5589 -3.85334 0.300212 1 
13149 1 1.45349 38.4047 -1.47023 8.16228 5 
13150 1 1.75108 39.0935 -4.66789 0.234904 1 
13151 1 2.39327 40.9118 -2.65155 4.83221 5 
13152 1 4.05095 38.7338 -3.16067 2.36134 5 
13153 1 4.94587 40.47 -0.976714 8.11483 5 
13154 1 5.02753 41.2994 -3.81241 0.130152 1 
13155 1 5.79886 43.2294 -1.84316 5.51566 5 
13156 1 7.32192 40.8086 -2.30201 6.8591 5 
13157 1 7.99709 42.7488 -0.382181 13.8358 5 
13158 1 8.39149 43.4992 -2.98926 0.338186 1 
13159 1 9.18922 45.2329 -0.694257 6.34145 5 
13160 1 11.6282 45.7567 -2.27382 7.68529 5 
13161 1 15.0928 47.9352 -1.69329 12.714 5 
13162 1 0.114415 34.6175 -5.92433 0.0234563 1 
13163 1 0.345192 35.2828 -8.69419 0.000802165 1 
13164 1 1.04512 37.1941 -6.68396 0.00966375 1 
13165 1 2.70137 34.8856 -7.12047 0.00288755 1 
13166 1 3.37891 36.788 -5.11222 0.0424828 1 
13167 1 3.63274 37.4855 -7.87852 0.00186917 1 
13168 1 4.33697 39.4026 -5.88951 0.0316875 1 
13169 1 5.96764 37.0803 -6.2996 0.0308503 1 
13170 1 6.66193 38.9719 -4.28336 1.2866 5 
13171 1 6.92846 39.6907 -7.03523 0.00855982 1 
13172 1 7.64194 41.6023 -5.00846 0.0345177 1 
13173 1 9.27244 39.3015 -5.49043 0.0489424 1 
13174 1 9.9958 41.1313 -3.37764 1.08509 5 
13175 1 10.2235 41.8913 -6.18673 0.041042 1 
13176 1 10.9203 43.7804 -4.16114 0.164879 1 
13177 1 12.6069 41.5565 -4.70235 0.190835 1 
13178 1 13.2328 43.4753 -2.54714 5.57914 5 
13179 1 13.5107 44.1125 -5.41989 0.039188 1 
13180 1 14.2457 45.9725 -3.39514 6.9965 5 
13181 1 15.9029 43.7657 -3.97242 0.526249 1 
13182 1 16.6669 45.6216 -1.83809 8.18392 5 
13183 1 16.8544 46.3626 -4.59642 0.0939163 1 
13184 1 17.6714 48.2375 -2.53046 3.41306 5 
13185 1 19.2182 45.8909 -2.99578 7.48996 5 
13186 1 20.0142 47.7957 -1.22647 11.2409 5 
13187 1 20.2179 48.5816 -3.7812 0.63315 1 
13188 1 -13.9553 50.4613 -1.559 6.80593 5 
13189 1 -12.1682 48.1295 -1.63435 7.69904 5 
13190 1 -11.459 50.6358 -2.86466 6.14017 5 
13191 1 -10.6974 52.397 -0.982842 12.4522 5 
13192 1 -8.96253 50.1917 -1.15458 9.49312 5 
13193 1 -8.16638 52.8896 -2.12395 3.75427 5 
13194 1 -5.99791 52.5103 -0.469512 12.1837 5 
13195 1 1.29257 31.0683 -11.1363 0.000310722 1 
13196 1 1.99758 32.977 -9.12611 0.000499185 1 
13197 1 2.23247 33.6659 -11.8936 5.53066e-05 1 
13198 1 2.93526 35.5754 -9.88511 0.000208021 1 
13199 1 4.58673 33.2692 -10.3107 0.000131214 1 
13200 1 5.2868 35.1765 -8.3049 0.00178333 1 
13201 1 5.52612 35.87 -11.07 9.12352e-05 1 
13202 1 6.22664 37.7816 -9.06004 0.00122565 1 
13203 1 7.87874 35.4735 -9.48919 0.000634425 1 
13204 1 8.57642 37.387 -7.49545 0.00735237 1 
13205 1 8.81912 38.0765 -10.2487 0.000731698 1 
13206 1 9.51912 39.9924 -8.2406 0.00656025 1 
13207 1 11.1719 37.6783 -8.67106 0.00382905 1 
13208 1 11.8858 39.6088 -6.71325 0.0663575 1 
13209 1 12.1161 40.2844 -9.43686 0.00484317 1 
13210 1 12.8192 42.204 -7.43605 0.0144725 1 
13211 1 14.4789 39.8904 -7.8529 0.00395848 1 
13212 1 15.1869 41.8089 -5.87828 0.0295499 1 
13213 1 15.4179 42.4933 -8.61506 0.00280728 1 
13214 1 16.1323 44.4232 -6.63162 0.0338526 1 
13215 1 17.7802 42.1042 -7.02559 0.00494144 1 
13216 1 18.4964 44.0206 -5.01092 0.0401575 1 
13217 1 18.7306 44.7026 -7.76875 0.00279021 1 
13218 1 19.4503 46.6133 -5.74128 0.0292188 1 
13219 1 21.0888 44.3307 -6.15327 0.03571 1 
13220 1 -13.0224 46.2753 -4.03969 0.481534 1 
13221 1 -12.8147 46.8994 -6.90302 0.0156808 1 
13222 1 -12.0921 48.7928 -4.85929 0.284025 1 
13223 1 -10.4793 46.4902 -5.29422 0.0416979 1 
13224 1 -9.7727 48.4227 -3.326 6.57654 5 
13225 1 -9.53145 49.091 -6.08771 0.0207146 1 
13226 1 -8.83313 50.9654 -4.02937 0.0767671 1 
13227 1 -7.18721 48.6796 -4.46417 1.51039 5 
13228 1 -6.53182 50.5129 -2.41436 6.69707 5 
13229 1 -6.22404 51.2971 -5.1829 0.0851106 1 
13230 1 10.0617 0.205263 -3.12574 0.773224 1 
13231 1 -3.87916 50.8277 -3.56333 0.86891 5 
13232 1 14.9178 0.109559 -2.70894 5.60792 5 
13233 1 0.587664 29.1603 -13.1465 4.60742e-05 1 
13235 1 1.52797 31.7575 -13.9048 2.04936e-05 1 
13236 1 3.17647 29.455 -14.3332 2.73334e-05 1 
13237 1 3.88196 31.3621 -12.3206 3.98976e-05 1 
13239 1 4.82254 33.9606 -13.0796 2.27843e-05 1 
13240 1 6.47154 31.6584 -13.5074 2.76718e-05 1 
13241 1 7.17659 33.5657 -11.4954 0.000108501 1 
13242 1 7.41239 34.2561 -14.2656 1.97566e-05 1 
13243 1 8.11664 36.1651 -12.2553 9.49379e-05 1 
13244 1 9.76636 33.8624 -12.6804 8.02077e-05 1 
13245 1 10.4701 35.7697 -10.6704 0.000293426 1 
13246 1 10.7068 36.4601 -13.4407 4.99138e-05 1 
13247 1 11.4109 38.3696 -11.4339 0.000374261 1 
13248 1 13.0601 36.0663 -11.8553 0.000191759 1 
13249 1 13.7656 37.9762 -9.84957 0.000518352 1 
13250 1 14.0023 38.665 -12.6178 7.51305e-05 1 
13251 1 14.7098 40.577 -10.613 0.0004254 1 
13252 1 16.3559 38.273 -11.0338 0.000180899 1 
13253 1 17.0651 40.1852 -9.02399 0.00121509 1 
13254 1 17.301 40.8723 -11.7916 0.000106357 1 
13255 1 18.0129 42.7864 -9.7824 0.000587049 1 
13256 1 19.6539 40.4821 -10.2046 0.000566943 1 
13257 1 20.3692 42.3993 -8.18411 0.00331968 1 
13258 1 20.6011 43.0794 -10.9571 0.000266571 1 
13259 1 21.3139 44.9912 -8.93636 0.00132334 1 
13260 1 -11.886 42.6871 -9.36733 0.00040419 1 
13261 1 -11.175 44.5959 -7.34151 0.00293535 1 
13262 1 -10.9436 45.2821 -10.119 0.000178131 1 
13263 1 -10.2388 47.1862 -8.09119 0.0015432 1 
13264 1 -8.5968 44.8871 -8.52845 0.00194537 1 
13265 1 -7.90399 46.7847 -6.48901 0.0282675 1 
13266 1 -7.65476 47.4825 -9.278 0.00227841 1 
13267 1 -6.94626 49.386 -7.23909 0.0132133 1 
13268 1 -5.31 47.0916 -7.71234 0.00195877 1 
13269 1 -4.60685 48.9964 -5.68048 0.0413927 1 
13270 1 -4.36213 49.6835 -8.4595 0.00375019 1 
13271 1 -3.65556 51.5658 -6.40567 0.0426747 1 
13272 1 -1.99466 49.3029 -6.92009 0.0241341 1 
13273 1 -1.26534 51.2283 -4.8961 0.134684 1 
13274 1 -1.05966 51.8899 -7.65584 0.0089319 1 
13285 1 9.06122 31.9549 -14.6943 1.86535e-05 1 
13289 1 12.3557 34.1584 -13.8677 4.93154e-05 1 
13291 1 13.2967 36.7555 -14.6271 2.58486e-05 1 
13293 1 15.65 36.3626 -13.0441 4.66547e-05 1 
13295 1 16.5929 38.961 -13.8026 2.38694e-05 1 
13296 1 18.2401 36.6582 -14.2322 1.39292e-05 1 
13297 1 18.9461 38.5692 -12.2202 6.44449e-05 1 
13298 1 19.183 39.2565 -14.9882 1.17456e-05 1 
13299 1 19.8906 41.1676 -12.974 5.4953e-05 1 
13300 1 21.536 38.864 -13.4062 3.25587e-05 1 
13301 1 22.243 40.776 -11.391 0.00017684 1 
13302 1 22.4793 41.4622 -14.1594 2.61651e-05 1 
13303 1 -11.6521 43.3728 -12.1409 7.61658e-05 1 
13304 1 -10.0085 41.0695 -12.5768 0.000124298 1 
13305 1 -9.30217 42.9796 -10.5552 0.000326941 1 
13306 1 -9.06542 43.6666 -13.3289 7.17245e-05 1 
13307 1 -8.35935 45.5759 -11.3074 0.000287371 1 
13308 1 -6.71532 43.274 -11.7499 0.000292288 1 
13309 1 -6.01274 45.1829 -9.72961 0.000869705 1 
13310 1 -5.77179 45.8701 -12.5023 0.000140348 1 
13311 1 -5.06689 47.7783 -10.4835 0.000325488 1 
13312 1 -3.418 45.4799 -10.9309 0.000539746 1 
13313 1 -2.71143 47.3886 -8.91514 0.00139783 1 
13314 1 -2.4738 48.0745 -11.6798 0.000203265 1 
13315 1 -1.76707 49.9831 -9.66816 0.00167804 1 
13316 1 -0.112896 47.6855 -10.1049 0.000722664 1 
13346 1 -10.714 39.1585 -14.5924 2.58226e-05 1 
13350 1 -7.4195 41.3634 -13.7669 8.67606e-05 1 
13352 1 -6.47687 43.9607 -14.5196 4.54594e-05 1 
13353 1 -4.82895 41.6574 -14.9553 5.93473e-05 1 
13354 1 -4.12346 43.5685 -12.9436 0.000219579 1 
13356 1 -3.18013 46.1652 -13.6948 9.58948e-05 1 
13357 1 -1.53097 43.8628 -14.1291 7.75905e-05 1 
13358 1 -0.822753 45.7742 -12.1173 0.000299906 1 
13359 1 -0.588266 46.4599 -14.8812 4.70964e-05 1 
13846 1 0.563099 35.6979 -1.14004 8.71883 5 
13847 1 2.35926 33.5276 -1.6192 6.02009 5 
13848 1 3.15313 36.0871 -2.33579 6.45553 5 
13849 1 4.15607 37.9071 -0.618211 11.9434 5 
13850 1 5.47653 35.5137 -0.558257 7.27885 5 
13851 1 6.968 38.1633 -0.58605 8.96408 5 
13852 1 8.99105 40.219 -0.303739 8.33591 5 
13853 1 0.83045 29.6966 -5.65653 0.0948486 1 
13854 1 1.53585 31.6237 -3.58914 0.260788 1 
13855 1 1.76464 32.2889 -6.36467 0.00506422 1 
13856 1 2.46678 34.1986 -4.37167 0.037022 1 
13857 1 4.12385 31.876 -4.78725 0.0250687 1 
13858 1 4.84685 33.7891 -2.80839 0.269395 1 
13859 1 5.06206 34.5052 -5.52296 0.039872 1 
13860 1 5.6912 36.4596 -3.4393 6.01148 5 
13861 1 7.41081 34.0557 -3.9746 0.18737 1 
13862 1 8.0355 36.0591 -2.16138 8.31853 5 
13863 1 8.32155 36.709 -4.77801 0.146166 1 
13864 1 9.01532 38.58 -2.68782 2.75301 5 
13865 1 10.6883 36.2456 -3.12448 1.22076 5 
13866 1 11.5291 38.2742 -1.56255 12.3323 5 
13867 1 11.6536 38.9575 -4.07145 0.924714 1 
13868 1 12.5317 40.7969 -2.02766 7.58308 5 
13869 1 14.2316 38.5315 -2.14933 7.50473 5 
13870 1 14.9886 41.1004 -3.16311 1.71053 5 
13871 1 15.6498 43.1069 -1.42865 12.1365 5 
13872 1 17.2336 40.7748 -1.44821 10.7722 5 
13873 1 18.3247 43.3381 -2.13822 5.36484 5 
13874 1 20.7243 42.7093 -0.874362 12.9817 5 
13875 1 21.5094 45.3987 -1.27943 7.63849 5 
13876 1 -9.57744 47.5744 -0.752261 12.1758 5 
13877 1 0.115955 27.7719 -7.60948 0.00628195 1 
13878 1 0.35261 28.4691 -10.3763 0.000561867 1 
13879 1 1.05753 30.3795 -8.3776 0.00605531 1 
13880 1 2.70524 28.0682 -8.78367 0.0012337 1 
13881 1 3.41564 29.9696 -6.77878 0.0091693 1 
13882 1 3.64768 30.6702 -9.54896 0.000505079 1 
13883 1 4.35567 32.5799 -7.53934 0.00166266 1 
13884 1 6.00282 30.2718 -7.96795 0.00310141 1 
13885 1 6.71001 32.169 -5.95171 0.0153756 1 
13886 1 6.94139 32.8723 -8.72463 0.000845516 1 
13887 1 7.63665 34.7778 -6.72779 0.00846874 1 
13888 1 9.29554 32.4788 -7.12577 0.00390564 1 
13889 1 9.99024 34.3812 -5.12279 0.0341656 1 
13890 1 10.2333 35.0764 -7.89756 0.00200166 1 
13891 1 10.9275 36.9758 -5.90807 0.0551119 1 
13892 1 12.5887 34.6979 -6.28337 0.0195034 1 
13893 1 13.3017 36.669 -4.28836 0.238347 1 
13894 1 13.5305 37.2908 -7.07754 0.0095157 1 
13895 1 14.2652 39.206 -5.08258 0.104282 1 
13896 1 15.8936 36.9091 -5.47489 0.0178307 1 
13897 1 16.6741 38.8397 -3.43883 6.55253 5 
13898 1 16.8305 39.5047 -6.24174 0.0203104 1 
13899 1 17.5572 41.4602 -4.2601 0.144318 1 
13900 1 19.1708 39.0935 -4.66789 0.234904 1 
13901 1 19.813 40.9118 -2.65155 4.83221 5 
13902 1 20.1271 41.7015 -5.42349 0.0244065 1 
13903 1 20.8366 43.613 -3.4546 0.238003 1 
13904 1 22.4472 41.2994 -3.81241 0.130152 1 
13905 1 -11.6209 43.2294 -1.84316 5.51566 5 
13906 1 -11.4105 43.9078 -4.58276 0.0382985 1 
13907 1 -10.7 45.7779 -2.48272 6.84062 5 
13908 1 -9.02822 43.4992 -2.98926 0.338186 1 
13909 1 -8.23049 45.2329 -0.694257 6.34145 5 
13910 1 -8.15003 46.1493 -3.60061 5.67837 5 
13911 1 -6.79017 47.9079 -0.665496 9.24294 5 
13912 1 -5.79156 45.7567 -2.27382 7.68529 5 
13913 1 -4.84939 48.2867 -2.81857 2.98417 5 
13914 1 -2.32694 47.9352 -1.69329 12.714 5 
13915 1 -1.3539 50.4885 -2.17702 4.44756 5 
13916 1 1.29361 24.2627 -12.8167 0.000199236 1 
13917 1 1.99942 26.1664 -10.7966 0.000700195 1 
13918 1 2.23518 26.8583 -13.5743 0.000103449 1 
13919 1 2.94113 28.764 -11.5598 0.00015933 1 
13920 1 4.58759 26.4647 -11.9899 0.000397228 1 
13921 1 5.29314 28.3675 -9.97265 0.00119816 1 
13922 1 5.52999 29.061 -12.7484 0.000125894 1 
13923 1 6.23638 30.9673 -10.7362 0.00017541 1 
13924 1 7.88505 28.6707 -11.1658 0.000188977 1 
13925 1 8.59201 30.5763 -9.14539 0.00105728 1 
13926 1 8.82622 31.2661 -11.9215 0.000118311 1 
13927 1 9.53129 33.1721 -9.90582 0.000529111 1 
13928 1 11.1817 30.8778 -10.3363 0.000324011 1 
13929 1 11.8847 32.7856 -8.30753 0.00365162 1 
13930 1 12.12 33.4705 -11.0922 0.000411424 1 
13931 1 12.8234 35.3777 -9.07749 0.00173696 1 
13932 1 14.4725 33.0807 -9.51043 0.000256077 1 
13933 1 15.1761 34.9934 -7.49351 0.00222916 1 
13934 1 15.4128 35.6754 -10.2713 0.000273998 1 
13935 1 16.1193 37.588 -8.26011 0.001558 1 
13936 1 17.7649 35.2828 -8.69419 0.000802165 1 
13937 1 18.4648 37.1941 -6.68396 0.00966375 1 
13938 1 18.7069 37.8817 -9.45329 0.000358242 1 
13939 1 19.4091 39.7928 -7.43514 0.00435218 1 
13940 1 21.0524 37.4855 -7.87852 0.00186917 1 
13941 1 21.7567 39.4026 -5.88951 0.0316875 1 
13942 1 22.0034 40.0904 -8.62879 0.00235433 1 
13943 1 -12.1256 41.9992 -6.59422 0.004099 1 
13944 1 -10.4913 39.6907 -7.03523 0.00855982 1 
13945 1 -9.77777 41.6023 -5.00846 0.0345177 1 
13946 1 -9.53692 42.2962 -7.774 0.00340355 1 
13947 1 -8.82382 44.2184 -5.72823 0.0385314 1 
13948 1 -7.19619 41.8913 -6.18673 0.041042 1 
13949 1 -6.49944 43.7804 -4.16114 0.164879 1 
13950 1 -6.2578 44.4942 -6.94766 0.00799139 1 
13951 1 -5.55704 46.4197 -4.95179 0.0707232 1 
13952 1 -3.90897 44.1125 -5.41989 0.039188 1 
13953 1 -3.17405 45.9725 -3.39514 6.9965 5 
13954 1 -2.95539 46.6965 -6.15446 0.0247896 1 
13955 1 -2.2359 48.6446 -4.24375 0.479024 1 
13956 1 -0.565343 46.3626 -4.59642 0.0939163 1 
13957 1 0.587545 22.3561 -14.8361 5.10343e-05 1 
13961 1 3.88233 24.559 -14.0092 5.77495e-05 1 
13963 1 4.82421 27.1546 -14.7642 4.78451e-05 1 
13965 1 7.17896 26.7633 -13.1834 6.87103e-05 1 
13967 1 8.12027 29.3588 -13.9378 2.63721e-05 1 
13968 1 9.76979 27.0591 -14.3713 2.40945e-05 1 
13969 1 10.4759 28.9682 -12.3551 6.30739e-05 1 
13971 1 11.4156 31.563 -13.11 3.99549e-05 1 
13972 1 13.0649 29.262 -13.5425 1.94874e-05 1 
13973 1 13.7695 31.1709 -11.5262 5.52267e-05 1 
13974 1 14.0046 31.8575 -14.2988 1.08105e-05 1 
13975 1 14.7088 33.766 -12.2845 4.48442e-05 1 
13976 1 16.3581 31.4637 -12.7163 2.36939e-05 1 
13977 1 17.0618 33.3725 -10.7035 8.32789e-05 1 
13978 1 17.2985 34.0603 -13.4744 1.68858e-05 1 
13979 1 18.0026 35.9699 -11.4634 6.51624e-05 1 
13980 1 19.6522 33.6659 -11.8936 5.53066e-05 1 
13981 1 20.355 35.5754 -9.88511 0.000208021 1 
13982 1 20.5931 36.2647 -12.6512 3.60465e-05 1 
13983 1 21.2974 38.1761 -10.6405 0.00019064 1 
13984 1 22.9458 35.87 -11.07 9.12352e-05 1 
13985 1 23.6463 37.7816 -9.06004 0.00122565 1 
13986 1 -10.9516 38.4709 -11.8248 0.000161335 1 
13987 1 -10.2472 40.3835 -9.8057 0.00116406 1 
13988 1 -8.60059 38.0765 -10.2487 0.000731698 1 
13989 1 -7.90059 39.9924 -8.2406 0.00656025 1 
13990 1 -7.65815 40.6772 -11.0009 0.000667356 1 
13991 1 -6.9559 42.5877 -8.97552 0.00306457 1 
13992 1 -5.30359 40.2844 -9.43686 0.00484317 1 
13993 1 -4.60052 42.204 -7.43605 0.0144725 1 
13994 1 -4.36231 42.8836 -10.1839 0.0015822 1 
13995 1 -3.66013 44.7968 -8.17353 0.00322118 1 
13996 1 -2.00179 42.4933 -8.61506 0.00280728 1 
13997 1 -1.28742 44.4232 -6.63162 0.0338526 1 
13998 1 -1.05611 45.0919 -9.36172 0.00277773 1 
13999 1 -0.340262 47.0064 -7.34892 0.00635655 1 
14018 1 15.6535 29.5553 -14.7302 7.77383e-06 1 
14022 1 18.9477 31.7575 -13.9048 2.04936e-05 1 
14024 1 19.8885 34.3551 -14.6623 9.77306e-06 1 
14026 1 22.2422 33.9606 -13.0796 2.27843e-05 1 
14028 1 23.1834 36.5597 -13.837 2.20291e-05 1 
14029 1 -10.0073 34.2561 -14.2656 1.97566e-05 1 
14030 1 -9.30307 36.1651 -12.2553 9.49379e-05 1 
14032 1 -8.36173 38.7648 -13.0126 0.000100009 1 
14033 1 -6.71291 36.4601 -13.4407 4.99138e-05 1 
14034 1 -6.00884 38.3696 -11.4339 0.000374261 1 
14035 1 -5.77136 39.0588 -14.1996 5.69352e-05 1 
14036 1 -5.06633 40.9701 -12.1915 0.000428989 1 
14037 1 -3.41746 38.665 -12.6178 7.51305e-05 1 
14038 1 -2.70987 40.577 -10.613 0.0004254 1 
14039 1 -2.47417 41.2644 -13.3755 8.25047e-05 1 
14040 1 -1.76645 43.1768 -11.3675 0.00044266 1 
14041 1 -0.118707 40.8723 -11.7916 0.000106357 1 
14079 1 -4.12297 36.7555 -14.6271 2.58486e-05 1 
14083 1 -0.826809 38.961 -13.8026 2.38694e-05 1 
14472 1 0.337684 28.4425 -0.496339 11.3106 5 
14473 1 1.54455 30.8858 -0.74692 9.90271 5 
14474 1 4.63756 32.7894 -0.195945 12.0121 5 
14475 1 0.645269 29.0147 -3.00203 1.92919 1 
14476 1 2.2935 26.7075 -3.12574 0.773224 1 
14477 1 3.16952 28.5107 -0.757365 8.84351 5 
14478 1 3.19269 29.2361 -4.01221 0.388366 1 
14479 1 3.90537 31.055 -2.07816 5.81786 5 
14480 1 5.49768 28.797 -2.49187 6.34164 5 
14481 1 6.4805 31.406 -3.18662 0.0674857 1 
14482 1 8.7961 30.9273 -1.57679 6.83681 5 
14483 1 9.81485 33.7554 -2.21565 6.02578 5 
14484 1 13.1386 35.9107 -1.64777 8.84083 5 
14485 1 0.821991 22.8838 -7.23909 0.0132133 1 
14486 1 1.5442 24.7948 -5.1829 0.0851106 1 
14487 1 1.76519 25.4688 -8.00835 0.00614265 1 
14488 1 2.46693 27.3623 -6.00136 0.027966 1 
14489 1 4.11269 25.0635 -6.40567 0.0426747 1 
14490 1 4.81338 26.9152 -4.38957 0.185239 1 
14491 1 5.05098 27.6613 -7.18874 0.0127439 1 
14492 1 5.76753 29.5623 -5.22061 0.0354491 1 
14493 1 7.4067 27.2773 -5.62529 0.0449754 1 
14494 1 8.12967 29.1361 -3.60047 6.69175 5 
14495 1 8.36238 29.8851 -6.35823 0.0184879 1 
14496 1 9.07532 31.7992 -4.31569 0.106067 1 
14497 1 10.7251 29.5418 -4.78372 0.0716171 1 
14498 1 11.4092 31.4394 -2.603 2.49066 5 
14499 1 11.6454 32.0921 -5.51438 0.0411688 1 
14500 1 12.356 33.9801 -3.51607 7.10474 5 
14501 1 14.0292 31.7485 -3.99453 0.238051 1 
14502 1 14.717 33.6021 -1.83948 5.59993 5 
14503 1 14.9336 34.3396 -4.71009 0.0558998 1 
14504 1 15.7146 36.2634 -2.65708 5.10468 5 
14505 1 17.2606 33.9166 -3.24765 0.526351 1 
14506 1 17.9828 35.6979 -1.14004 8.71883 5 
14507 1 18.2522 36.5589 -3.85334 0.300212 1 
14508 1 18.8732 38.4047 -1.47023 8.16228 5 
14509 1 20.5728 36.0871 -2.33579 6.45553 5 
14510 1 21.5758 37.9071 -0.618211 11.9434 5 
14511 1 21.4707 38.7338 -3.16067 2.36134 5 
14512 1 22.3656 40.47 -0.976714 8.11483 5 
14513 1 -10.4517 38.1633 -0.58605 8.96408 5 
14514 1 -10.0978 40.8086 -2.30201 6.8591 5 
14515 1 -9.42262 42.7488 -0.382181 13.8358 5 
14516 1 -8.42866 40.219 -0.303739 8.33591 5 
14517 1 0.113487 20.9802 -9.278 0.00227841 1 
14518 1 0.351423 21.668 -12.0608 0.000315697 1 
14519 1 1.05753 23.572 -10.0359 0.00141931 1 
14520 1 2.70136 21.276 -10.4835 0.000325488 1 
14521 1 3.40612 23.1812 -8.4595 0.00375019 1 
14522 1 3.64511 23.8705 -11.236 0.000401965 1 
14523 1 4.34897 25.7711 -9.2085 0.00410032 1 
14524 1 6.00118 23.4808 -9.66816 0.00167804 1 
14525 1 6.70859 25.3876 -7.65584 0.0089319 1 
14526 1 6.94347 26.0762 -10.4153 0.0007011 1 
14527 1 7.64927 27.9823 -8.3925 0.00242393 1 
14528 1 9.30612 25.6898 -8.83877 0.00105397 1 
14529 1 10.015 27.6089 -6.82915 0.0144374 1 
14530 1 10.243 28.2837 -9.58689 0.000736361 1 
14531 1 10.9494 30.1953 -7.5638 0.00326327 1 
14532 1 12.6014 27.8937 -8.00125 0.00121009 1 
14533 1 13.3007 29.8053 -5.97427 0.00985959 1 
14534 1 13.5348 30.4867 -8.75188 0.000513499 1 
14535 1 14.2369 32.403 -6.73915 0.00653691 1 