ITEM: TIMESTEP
0
ITEM: NUMBER OF ATOMS
12746
ITEM: BOX BOUNDS xy xz yz pp pp ss
0 134.734485721 15.551580068
0 59.969436861 0
-200.7424061755451 224.7643393823521 0
ITEM: ATOMS id type x y z c_csym c_cna 
18888 1 115.188 0.255155 -14.654 7.67617e-05 1 
18891 1 118.074 3.05687 -14.2219 0.00011493 1 
18892 1 116.969 1.02285 -12.5465 0.000147202 1 
18893 1 118.747 1.78586 -10.4381 0.000258579 1 
22006 1 109.549 0.0812776 -13.7044 0.0001069 1 
22008 1 112.368 0.169962 -14.1779 0.000102069 1 
22010 1 112.434 2.8908 -13.2681 0.00016742 1 
22011 1 113.54 4.9234 -14.9462 0.000105275 1 
22012 1 115.254 2.9751 -13.7434 0.000168352 1 
22014 1 115.321 5.69212 -12.8316 0.000236628 1 
22015 1 116.428 7.72185 -14.5169 0.000104528 1 
22016 1 118.142 5.77281 -13.3115 0.000184997 1 
22017 1 118.211 8.48548 -12.4047 0.000220281 1 
22018 1 111.326 0.856413 -11.5939 0.000370592 1 
22019 1 114.147 0.941874 -12.0694 0.000247947 1 
22020 1 113.099 1.63225 -9.48443 0.00147265 1 
22021 1 114.211 3.6634 -11.1528 0.000600083 1 
22022 1 115.925 1.71114 -9.96301 0.000783636 1 
22023 1 117.033 3.74271 -11.6316 0.000414395 1 
22024 1 115.984 4.43326 -9.03708 0.00245519 1 
22025 1 117.1 6.45755 -10.7169 0.00062367 1 
22026 1 118.813 4.50383 -9.52202 0.000542427 1 
22027 1 118.885 7.21632 -8.60909 0.00121159 1 
22028 1 113.769 0.362504 -5.77733 0.0947657 1 
22029 1 114.877 2.40889 -7.38361 0.00792323 1 
22030 1 116.592 0.436795 -6.18784 0.0109396 1 
22031 1 117.698 2.47098 -7.85264 0.00159158 1 
22032 1 116.642 3.15838 -5.26675 0.0141674 1 
22033 1 117.76 5.18554 -6.93342 0.00334908 1 
22034 1 115.527 1.12416 -3.64756 0.264242 1 
22035 1 118.335 1.1846 -4.03062 0.104184 1 
22036 1 117.175 1.90698 -1.43528 4.42056 5 
22037 1 118.371 3.89772 -3.12027 0.183157 1 
25357 1 114.785 12.3833 -14.8282 7.58266e-05 1 
25361 1 117.677 15.183 -14.4173 0.000109338 1 
25363 1 105.013 1.93471 -14.4387 0.000115663 1 
25364 1 122.281 59.9585 -13.2328 0.000118859 1 
25365 1 107.833 2.02796 -14.9085 7.60866e-05 1 
25366 1 106.796 2.71023 -12.3296 0.000161097 1 
25367 1 107.902 4.74794 -14.0037 0.000132386 1 
25368 1 109.615 2.80263 -12.7973 0.000158105 1 
25369 1 110.721 4.83723 -14.473 0.000117816 1 
25370 1 109.683 5.5229 -11.8872 0.000310979 1 
25371 1 110.79 7.55426 -13.5655 0.000164764 1 
25372 1 112.501 5.60938 -12.3561 0.00025578 1 
25373 1 113.609 7.63898 -14.0387 0.000144 1 
25374 1 112.57 8.32406 -11.4453 0.000423753 1 
25375 1 113.68 10.3518 -13.1355 0.000154173 1 
25376 1 115.391 8.40525 -11.9231 0.000256026 1 
25377 1 116.499 10.4344 -13.6154 0.0001169 1 
25378 1 115.465 11.116 -11.0221 0.000402581 1 
25379 1 116.572 13.1469 -12.7216 0.000167129 1 
25380 1 118.284 11.1967 -11.5057 0.000333316 1 
25381 1 118.359 13.91 -10.6183 0.000594801 1 
25382 1 105.69 0.669815 -10.6541 0.000366104 1 
25383 1 108.507 0.765241 -11.1235 0.000337268 1 
25384 1 107.459 1.44731 -8.54529 0.00263385 1 
25385 1 108.573 3.48813 -10.2162 0.000517211 1 
25386 1 110.275 1.54428 -9.0071 0.00256425 1 
25387 1 111.392 3.57862 -10.6804 0.000446066 1 
25388 1 110.344 4.26848 -8.09193 0.00273603 1 
25389 1 111.458 6.29829 -9.76248 0.000725954 1 
25390 1 113.161 4.35654 -8.55596 0.00267068 1 
25391 1 114.276 6.37956 -10.2357 0.000657756 1 
25392 1 113.224 7.06971 -7.63114 0.0034833 1 
25393 1 114.348 9.0894 -9.32692 0.000775855 1 
25394 1 116.048 7.14334 -8.11757 0.00369347 1 
25395 1 117.174 9.1687 -9.80789 0.000996964 1 
25396 1 116.128 9.85155 -7.21244 0.00688676 1 
25397 1 117.256 11.8801 -8.90764 0.00253453 1 
25398 1 118.969 9.93176 -7.69812 0.00488443 1 
25399 1 119.063 12.6541 -6.78802 0.019719 1 
25400 1 108.037 0.167938 -4.76783 1.12244 5 
25401 1 109.207 2.23368 -6.41934 0.0288731 1 
25402 1 110.89 0.257069 -5.3014 0.200478 1 
25403 1 112.044 2.32551 -6.89336 0.022826 1 
25404 1 110.948 3.07175 -4.34326 0.216702 1 
25405 1 112.108 5.06269 -5.94945 0.0277883 1 
25406 1 113.831 3.11757 -4.79359 0.0880811 1 
25407 1 114.925 5.13085 -6.42539 0.0178126 1 
25408 1 113.863 5.84145 -3.77044 0.227209 1 
25409 1 114.975 7.82889 -5.50529 0.0311314 1 
25410 1 116.71 5.86734 -4.34165 0.0502787 1 
25411 1 117.833 7.89302 -6.03087 0.0103008 1 
25412 1 116.746 8.57801 -3.48264 0.155793 1 
25413 1 117.945 10.6129 -5.12899 0.0353577 1 
25414 1 109.753 1.04123 -2.88889 10.5946 5 
25415 1 112.643 1.06729 -3.36835 6.17038 5 
25416 1 111.541 1.43024 -0.961826 11.8366 5 
25417 1 112.667 3.84021 -2.2831 1.19588 1 
25418 1 114.273 1.83384 -1.28576 7.70159 5 
25419 1 115.595 3.88055 -2.65273 0.435527 1 
25420 1 114.507 4.80702 -0.224116 9.33015 5 
25421 1 115.714 6.63104 -1.73536 7.22281 5 
25422 1 118.459 6.56589 -2.15845 3.60252 5 
25423 1 118.547 9.30185 -1.5742 6.05527 5 
28914 1 103.364 6.60226 -14.7417 0.000170752 1 
28918 1 106.256 9.41195 -14.3062 0.000161852 1 
28920 1 109.076 9.49963 -14.7761 0.000109147 1 
28922 1 109.147 12.2139 -13.8744 0.00012686 1 
28924 1 111.966 12.2989 -14.3496 9.14604e-05 1 
28926 1 112.038 15.0122 -13.4558 0.000133452 1 
28928 1 114.857 15.0975 -13.9363 0.000122612 1 
28930 1 114.931 17.8153 -13.0498 0.000212587 1 
28931 1 116.033 19.8554 -14.7389 0.00012513 1 
28932 1 117.751 17.9021 -13.5304 0.00016842 1 
28934 1 117.827 20.6262 -12.6456 0.000276955 1 
28935 1 118.926 22.6665 -14.3283 0.00015152 1 
28936 1 99.3665 1.74136 -13.4946 0.000215625 1 
28937 1 102.191 1.8387 -13.9687 0.000203323 1 
28938 1 101.157 2.51303 -11.4009 0.000836032 1 
28939 1 102.26 4.55958 -13.0726 0.000365123 1 
28940 1 103.977 2.61332 -11.8651 0.000378974 1 
28941 1 105.082 4.65527 -13.5377 0.000210347 1 
28942 1 104.046 5.33494 -10.967 0.000803258 1 
28943 1 105.152 7.37587 -12.6338 0.000324499 1 
28944 1 106.865 5.43137 -11.4243 0.000328716 1 
28945 1 107.972 7.46667 -13.0975 0.000204625 1 
28946 1 106.935 8.15146 -10.5154 0.000536751 1 
28947 1 108.042 10.1828 -12.1913 0.000264543 1 
28948 1 109.753 8.24006 -10.9766 0.000456884 1 
28949 1 110.861 10.2684 -12.6605 0.000193223 1 
28950 1 109.824 10.9526 -10.069 0.000626046 1 
28951 1 110.934 12.98 -11.7614 0.000239036 1 
28952 1 112.643 11.0344 -10.5427 0.000455047 1 
28953 1 113.753 13.0635 -12.2398 0.000187262 1 
28954 1 112.722 13.7447 -9.64998 0.000828003 1 
28955 1 113.828 15.7775 -11.3529 0.000308204 1 
28956 1 115.542 13.8277 -10.1334 0.000545453 1 
28957 1 116.646 15.8627 -11.8364 0.000331112 1 
28958 1 115.619 16.5467 -9.25658 0.00135145 1 
28959 1 116.723 18.5855 -10.9571 0.000475785 1 
28960 1 118.436 16.6298 -9.74512 0.00147147 1 
28961 1 118.518 19.3629 -8.87233 0.00115624 1 
28962 1 100.063 0.466131 -9.72084 0.00193969 1 
28963 1 102.877 0.570291 -10.1858 0.000996866 1 
28964 1 101.846 1.24562 -7.60305 0.00598224 1 
28965 1 102.938 3.28882 -9.29527 0.00230101 1 
28966 1 104.644 1.34932 -8.07328 0.00752642 1 
28967 1 105.753 3.39177 -9.75208 0.000685622 1 
28968 1 104.692 4.07151 -7.17299 0.0169486 1 
28969 1 105.824 6.1148 -8.8486 0.00172748 1 
28970 1 107.525 4.17224 -7.64481 0.00692625 1 
28971 1 108.642 6.21132 -9.30125 0.00125854 1 
28972 1 107.594 6.91227 -6.71565 0.0148631 1 
28973 1 108.71 8.92955 -8.38503 0.00225165 1 
28974 1 110.408 6.99471 -7.16433 0.00669059 1 
28975 1 111.524 9.01113 -8.84595 0.00246363 1 
28976 1 110.462 9.69281 -6.22719 0.0168384 1 
28977 1 111.6 11.7148 -7.94711 0.00366106 1 
28978 1 113.29 9.76717 -6.72846 0.00586168 1 
28979 1 114.43 11.7977 -8.43141 0.00189783 1 
28980 1 113.401 12.4777 -5.85952 0.0295716 1 
28981 1 114.522 14.5162 -7.54855 0.00401444 1 
28982 1 116.23 12.5637 -6.31846 0.0132027 1 
28983 1 117.337 14.5925 -8.03063 0.00314806 1 
28984 1 116.335 15.2977 -5.44846 0.0200944 1 
28985 1 117.41 17.3183 -7.1825 0.0106137 1 
28986 1 102.592 0.0380786 -3.74937 0.221503 1 
28987 1 103.593 2.02883 -5.47367 0.0503232 1 
28988 1 105.351 0.111193 -4.1345 0.730692 5 
28989 1 106.39 2.11402 -5.98401 0.0742401 1 
28990 1 105.347 2.81959 -3.47456 5.99943 5 
28991 1 106.47 4.86815 -5.11934 0.0993497 1 
28992 1 108.097 2.95853 -3.8715 5.64331 5 
28993 1 109.289 4.98225 -5.51905 0.0498817 1 
28994 1 108.143 5.63536 -2.9608 3.35197 5 
28995 1 109.342 7.67429 -4.53582 0.0356616 1 
28996 1 110.991 5.74869 -3.28604 0.297904 1 
28997 1 112.148 7.74234 -5.00293 0.0177886 1 
28998 1 111.049 8.42127 -2.318 0.422473 1 
28999 1 112.208 10.4212 -4.13117 0.0739632 1 
29000 1 113.853 8.48524 -2.83852 0.353797 1 
29001 1 115.044 10.5274 -4.62067 0.0801241 1 
29002 1 113.909 11.2188 -2.05562 6.65562 5 
29003 1 115.233 13.2738 -3.7426 0.168783 1 
29004 1 116.891 11.3374 -2.66289 0.297612 1 
29005 1 118.053 13.3661 -4.21573 0.067402 1 
29006 1 117.074 14.2116 -1.58142 3.3434 5 
29007 1 118.142 16.0951 -3.29898 0.295262 1 
29008 1 104.274 0.869241 -1.49741 6.85674 5 
29009 1 107.014 1.53282 -1.58659 12.7307 5 
29010 1 109.711 3.5826 -1.63602 8.78495 5 
29011 1 112.578 6.56915 -0.933848 6.88284 5 
29012 1 115.74 12.1234 -0.32148 12.7183 5 
29013 1 118.612 12.0313 -0.585702 5.51931 5 
32644 1 117.272 27.3453 -14.6326 9.17027e-05 1 
32648 1 91.9243 0.786293 -14.6082 0.000124274 1 
32652 1 94.8167 3.59757 -14.2071 0.000164379 1 
32654 1 97.6429 3.69193 -14.692 0.000161725 1 
32656 1 97.7119 6.4143 -13.7954 0.000191937 1 
32658 1 100.539 6.50875 -14.2712 0.000187884 1 
32660 1 100.609 9.23108 -13.3673 0.000222423 1 
32662 1 103.434 9.32233 -13.8377 0.000219084 1 
32664 1 103.504 12.0403 -12.9316 0.000247155 1 
32665 1 104.605 14.0748 -14.6066 9.60434e-05 1 
32666 1 106.326 12.1277 -13.4024 0.000190345 1 
32668 1 106.398 14.8411 -12.5016 0.000240801 1 
32669 1 107.498 16.8753 -14.1858 8.40007e-05 1 
32670 1 109.219 14.9268 -12.9776 0.000166183 1 
32671 1 110.32 16.9619 -14.6667 8.27644e-05 1 
32672 1 109.292 17.6407 -12.0856 0.000206237 1 
32673 1 110.39 19.6785 -13.775 0.000106614 1 
32674 1 112.112 17.728 -12.5677 0.000224442 1 
32675 1 113.212 19.7673 -14.2578 0.000130471 1 
32676 1 112.184 20.4483 -11.6831 0.000398128 1 
32677 1 113.283 22.4898 -13.368 0.000132029 1 
32678 1 115.006 20.5384 -12.1663 0.000405809 1 
32679 1 116.105 22.5794 -13.8497 0.00015798 1 
32680 1 115.079 23.2673 -11.2797 0.000451738 1 
32681 1 116.174 25.3067 -12.9569 0.000166123 1 
32682 1 117.9 23.3551 -11.76 0.000459709 1 
32683 1 118.996 25.3937 -13.4364 0.000221592 1 
32684 1 117.965 26.0873 -10.868 0.000770455 1 
32685 1 119.061 28.1231 -12.537 0.00029074 1 
32686 1 93.7152 1.55031 -12.5231 0.000242852 1 
32687 1 96.5406 1.64496 -13.0128 0.000216076 1 
32688 1 95.5086 2.31665 -10.4424 0.000540883 1 
32689 1 96.6074 4.36528 -12.1242 0.000432199 1 
32690 1 98.3328 2.41299 -10.9276 0.000529608 1 
32691 1 99.4341 4.46199 -12.603 0.000412375 1 
32692 1 98.3953 5.13385 -10.043 0.00142935 1 
32693 1 99.503 7.18618 -11.7053 0.000472219 1 
32694 1 101.223 5.23471 -10.5107 0.00146985 1 
32695 1 102.329 7.28212 -12.1715 0.000440897 1 
32696 1 101.292 7.96044 -9.60823 0.00132506 1 
32697 1 102.4 10.0036 -11.2648 0.00057296 1 
32698 1 104.116 8.05816 -10.0615 0.0010208 1 
32699 1 105.223 10.0945 -11.7271 0.000418131 1 
32700 1 104.187 10.7772 -9.14938 0.00111424 1 
32701 1 105.294 12.8088 -10.821 0.000554471 1 
32702 1 107.006 10.8671 -9.60539 0.000741649 1 
32703 1 108.115 12.8955 -11.2884 0.000353789 1 
32704 1 107.081 13.5756 -8.70025 0.00143526 1 
32705 1 108.192 15.6058 -10.3943 0.000706807 1 
32706 1 109.902 13.6611 -9.17079 0.000901556 1 
32707 1 111.011 15.6919 -10.8713 0.000411212 1 
32708 1 109.991 16.3719 -8.28658 0.00254198 1 
32709 1 111.088 18.4081 -9.98916 0.000609463 1 
32710 1 112.805 16.461 -8.76946 0.00106697 1 
32711 1 113.905 18.4976 -10.4739 0.000556809 1 
32712 1 112.885 19.1852 -7.89931 0.00220315 1 
32713 1 113.982 21.2248 -9.60114 0.00230705 1 
32714 1 115.698 19.2758 -8.38727 0.00244235 1 
32715 1 116.805 21.3158 -10.0799 0.00140293 1 
32716 1 115.793 22.0118 -7.5327 0.0140719 1 
32717 1 116.879 24.0525 -9.19747 0.00204953 1 
32718 1 118.612 22.1043 -7.98853 0.00434242 1 
32719 1 118.681 24.8396 -7.11042 0.0105547 1 
32720 1 94.4169 0.272003 -8.75022 0.00147171 1 
32721 1 97.2402 0.367975 -9.24312 0.00119636 1 
32722 1 96.2326 1.05436 -6.66848 0.010448 1 
32723 1 97.2975 3.08539 -8.36142 0.00392579 1 
32724 1 99.0441 1.13808 -7.15699 0.0142234 1 
32725 1 100.121 3.18211 -8.84122 0.00472578 1 
32726 1 99.0731 3.8437 -6.29181 0.0410019 1 
32727 1 100.175 5.90195 -7.96314 0.00711507 1 
32728 1 101.884 3.95415 -6.73445 0.020992 1 
32729 1 103.004 6.01058 -8.40884 0.00654338 1 
32730 1 101.945 6.67772 -5.89073 0.0595494 1 
32731 1 103.077 8.74109 -7.49429 0.00646146 1 
32732 1 104.774 6.79652 -6.28331 0.0254083 1 
32733 1 105.893 8.83846 -7.93465 0.00160144 1 
32734 1 104.845 9.52652 -5.35003 0.0215316 1 
32735 1 105.965 11.5503 -7.01654 0.00203342 1 
32736 1 107.662 9.62034 -5.78815 0.0125535 1 
32737 1 108.78 11.6365 -7.47114 0.00327053 1 
32738 1 107.72 12.3159 -4.86019 0.0188975 1 
32739 1 108.865 14.3405 -6.5789 0.00591753 1 
32740 1 110.54 12.3923 -5.35265 0.0412599 1 
32741 1 111.697 14.4273 -7.06149 0.00718745 1 
32742 1 110.673 15.1223 -4.4925 0.0468714 1 
32743 1 111.798 17.1536 -6.18263 0.0122919 1 
32744 1 113.533 15.226 -4.97737 0.0468612 1 
32745 1 114.597 17.249 -6.67297 0.0123237 1 
32746 1 113.607 18.0094 -4.06395 0.19289 1 
32747 1 114.674 19.9877 -5.81307 0.0243955 1 
32748 1 116.383 18.0349 -4.63057 0.0984293 1 
32749 1 117.496 20.0668 -6.31798 0.00662075 1 
32750 1 116.464 20.7947 -3.77068 0.128598 1 
32751 1 117.614 22.8119 -5.43816 0.0265494 1 
32752 1 98.0573 1.84097 -4.58415 0.159624 1 
32753 1 100.824 1.92549 -5.00045 0.101459 1 
32754 1 99.8261 2.75629 -2.21424 9.20115 5 
32755 1 100.789 4.60065 -4.20598 5.86224 5 
32756 1 102.589 2.75378 -2.81114 1.78868 5 
32757 1 103.569 4.74625 -4.60411 0.486009 1 
32758 1 101.977 5.29001 -1.87432 11.0896 5 
32759 1 103.664 7.46796 -3.76544 0.489847 1 
32760 1 105.31 5.62264 -2.70387 6.60952 5 
32761 1 106.518 7.64325 -4.13355 0.164972 1 
32762 1 105.318 8.30821 -1.44426 5.87889 5 
32763 1 106.61 10.3119 -3.1521 0.241042 1 
32764 1 108.223 8.35949 -1.934 0.490604 1 
32765 1 109.386 10.3819 -3.58128 0.230576 1 
32766 1 108.298 11.4058 -0.74666 8.16952 5 
32767 1 109.479 13.1017 -2.76255 6.48878 5 
32768 1 111.162 11.1518 -1.53243 5.80905 5 
32769 1 112.38 13.1703 -3.38244 0.301658 1 
32770 1 111.481 13.8309 -0.953349 10.1311 5 
32771 1 112.54 16.0159 -2.47271 0.270626 1 
32772 1 114.16 14.0878 -1.34441 5.68947 5 
32773 1 115.37 16.0885 -2.87968 0.17339 1 
32774 1 115.48 18.8503 -1.96977 4.62668 5 
32775 1 118.151 18.8103 -2.65949 7.0895 5 
32776 1 118.259 21.64 -1.87835 5.26475 5 
32777 1 98.7633 0.368037 -0.711139 8.49229 5 
32778 1 101.495 0.767407 -1.14787 7.71742 5 
32779 1 106.812 6.16523 -0.509045 6.98264 5 
36516 1 102.951 18.7368 -14.9001 5.36208e-05 1 
36520 1 105.843 21.538 -14.4891 5.37956e-05 1 
36522 1 108.667 21.628 -14.9765 4.55558e-05 1 
36524 1 108.737 24.3453 -14.0824 6.2985e-05 1 
36526 1 111.56 24.4386 -14.5672 5.74565e-05 1 
36528 1 111.629 27.1604 -13.6724 8.64516e-05 1 
36530 1 114.451 27.2548 -14.1533 8.40321e-05 1 
36532 1 114.518 29.9794 -13.2533 0.000114247 1 
36533 1 115.619 32.0167 -14.9276 6.33458e-05 1 
36534 1 117.339 30.0713 -13.7304 0.000117479 1 
36536 1 117.406 32.7955 -12.8236 0.000142689 1 
36537 1 118.508 34.8281 -14.4963 9.90241e-05 1 
36539 1 86.2816 0.60451 -13.6216 9.194e-05 1 
36541 1 89.102 0.694885 -14.1146 0.000113927 1 
36543 1 89.17 3.41234 -13.222 0.0001417 1 
36544 1 90.2714 5.45935 -14.9069 9.41565e-05 1 
36545 1 91.9921 3.50435 -13.7161 0.000159724 1 
36547 1 92.0605 6.22651 -12.8221 0.000204366 1 
36548 1 93.1648 8.27419 -14.4972 9.33564e-05 1 
36549 1 94.8851 6.32005 -13.3122 0.000201416 1 
36550 1 95.9903 8.36687 -14.9829 8.58544e-05 1 
36551 1 94.9554 9.04518 -12.4097 0.000184841 1 
36552 1 96.061 11.0897 -14.0758 0.000104473 1 
36553 1 97.7819 9.13856 -12.8918 0.000194173 1 
36554 1 98.8865 11.1807 -14.5572 0.00010133 1 
36555 1 97.8529 11.8618 -11.9799 0.000233393 1 
36556 1 98.9564 13.9001 -13.6463 0.000113335 1 
36557 1 100.678 11.9519 -12.4578 0.000209802 1 
36558 1 101.781 13.988 -14.1275 8.895e-05 1 
36559 1 100.748 14.6692 -11.5445 0.000219416 1 
36560 1 101.851 16.703 -13.2185 0.00012489 1 
36561 1 103.574 14.7552 -12.0254 0.000262728 1 
36562 1 104.675 16.7891 -13.7036 8.95269e-05 1 
36563 1 103.646 17.4681 -11.1187 0.000316412 1 
36564 1 104.745 19.502 -12.8024 9.69677e-05 1 
36565 1 106.47 17.554 -11.6038 0.000243393 1 
36566 1 107.568 19.5899 -13.2903 8.55731e-05 1 
36567 1 106.542 20.2675 -10.7082 0.000202771 1 
36568 1 107.638 22.3055 -12.3965 0.000106475 1 
36569 1 109.363 20.3575 -11.1967 0.000237862 1 
36570 1 110.461 22.398 -12.8837 0.000109029 1 
36571 1 109.436 23.0775 -10.3075 0.000347646 1 
36572 1 110.532 25.1195 -11.9907 0.000166135 1 
36573 1 112.257 23.1743 -10.7948 0.000350588 1 
36574 1 113.353 25.2151 -12.4751 0.000155222 1 
36575 1 112.327 25.9024 -9.89999 0.00108929 1 
36576 1 113.42 27.9413 -11.5778 0.000216377 1 
36577 1 115.144 25.9992 -10.3835 0.000699035 1 
36578 1 116.24 28.0353 -12.0583 0.000239683 1 
36579 1 115.205 28.729 -9.48226 0.00105148 1 
36580 1 116.304 30.7627 -11.1528 0.000265552 1 
36581 1 118.024 28.8209 -9.96132 0.00140062 1 
36582 1 118.085 31.5503 -9.04442 0.00163958 1 
36583 1 88.0708 1.36495 -11.5303 0.000250972 1 
36584 1 90.8917 1.457 -12.0272 0.000269137 1 
36585 1 89.8633 2.1271 -9.44731 0.00101329 1 
36586 1 90.9602 4.17724 -11.139 0.000283958 1 
36587 1 92.6868 2.2221 -9.94869 0.000589591 1 
36588 1 93.7823 4.27079 -11.635 0.000338962 1 
36589 1 92.7512 4.9463 -9.06209 0.000992777 1 
36590 1 93.849 6.99557 -10.7421 0.000595421 1 
36591 1 95.5709 5.0377 -9.55959 0.00163855 1 
36592 1 96.675 7.09011 -11.2299 0.000559838 1 
36593 1 95.6347 7.76313 -8.66884 0.00273415 1 
36594 1 96.7464 9.81766 -10.3217 0.000508855 1 
36595 1 98.4633 7.86077 -9.14782 0.00177846 1 
36596 1 99.5735 9.91142 -10.7977 0.000562913 1 
36597 1 98.5381 10.5917 -8.22994 0.0024656 1 
36598 1 99.6434 12.6337 -9.87943 0.00056053 1 
36599 1 101.364 10.6837 -8.69586 0.00204265 1 
36600 1 102.47 12.7211 -10.3544 0.000746132 1 
36601 1 101.433 13.3984 -7.77835 0.00331835 1 
36602 1 102.541 15.433 -9.44549 0.00129779 1 
36603 1 104.26 13.4858 -8.2394 0.00253847 1 
36604 1 105.37 15.5189 -9.92189 0.00134311 1 
36605 1 104.343 16.1888 -7.35651 0.014308 1 
36606 1 105.449 18.2323 -9.02233 0.00129368 1 
36607 1 107.174 16.2825 -7.81682 0.00696308 1 
36608 1 108.27 18.3197 -9.50496 0.000600493 1 
36609 1 107.26 19.0017 -6.92259 0.00448179 1 
36610 1 108.34 21.0358 -8.61663 0.000764262 1 
36611 1 110.073 19.0901 -7.41203 0.00224539 1 
36612 1 111.159 21.1304 -9.11127 0.0017845 1 
36613 1 110.133 21.808 -6.53582 0.015978 1 
36614 1 111.238 23.86 -8.22218 0.00280481 1 
36615 1 112.963 21.9127 -7.05145 0.0237294 1 
36616 1 114.058 23.962 -8.71145 0.00256777 1 
36617 1 113.053 24.6715 -6.13634 0.0307251 1 
36618 1 114.112 26.6984 -7.80107 0.0137739 1 
36619 1 115.869 24.7647 -6.63752 0.0168737 1 
36620 1 116.93 26.7908 -8.29908 0.00394752 1 
36621 1 115.88 27.498 -5.72775 0.103429 1 
36622 1 116.979 29.5296 -7.37415 0.0117791 1 
36623 1 118.703 27.5719 -6.23275 0.0519391 1 
36624 1 118.765 30.3027 -5.27659 0.132656 1 
36625 1 88.7647 0.069826 -7.74995 0.0156419 1 
36626 1 91.5933 0.170481 -8.25678 0.00916851 1 
36627 1 90.5948 0.836667 -5.71935 0.107866 1 
36628 1 91.6703 2.90048 -7.38137 0.00381423 1 
36629 1 93.412 0.947751 -6.18149 0.0110548 1 
36630 1 94.4864 2.99139 -7.86964 0.00223172 1 
36631 1 93.4756 3.68005 -5.29597 0.0201082 1 
36632 1 94.5365 5.70753 -6.99256 0.00973956 1 
36633 1 96.2735 3.76538 -5.76504 0.0215307 1 
36634 1 97.3465 5.80021 -7.48599 0.00999827 1 
36635 1 96.2798 6.44992 -4.91298 0.0822101 1 
36636 1 97.4202 8.52642 -6.60557 0.019228 1 
36637 1 99.0971 6.5567 -5.43631 0.0598976 1 
36638 1 100.249 8.63342 -7.05653 0.00626104 1 
36639 1 99.2092 9.32081 -4.53912 0.0859333 1 
36640 1 100.328 11.3664 -6.12952 0.0129669 1 
36641 1 102.019 9.41738 -4.93227 0.0346834 1 
36642 1 103.145 11.4549 -6.56902 0.00305414 1 
36643 1 102.094 12.1281 -3.98466 0.0481712 1 
36644 1 103.208 14.1503 -5.65875 0.0180412 1 
36645 1 104.917 12.2251 -4.42386 0.0222325 1 
36646 1 106.04 14.2504 -6.10605 0.0169817 1 
36647 1 104.93 14.9194 -3.53395 0.235382 1 
36648 1 106.17 16.9503 -5.27512 0.0772023 1 
36649 1 107.827 15.0188 -3.98858 0.0837288 1 
36650 1 108.997 17.0564 -5.70611 0.0241425 1 
36651 1 108.007 17.7364 -3.19093 0.224595 1 
36652 1 109.08 19.7765 -4.82926 0.0248496 1 
36653 1 110.823 17.8637 -3.56363 0.282148 1 
36654 1 111.871 19.8737 -5.31922 0.0264775 1 
36655 1 110.885 20.6155 -2.71907 6.90906 5 
36656 1 111.963 22.5921 -4.54176 0.18621 1 
36657 1 113.68 20.7232 -3.21827 6.41541 5 
36658 1 114.806 22.7274 -5.03358 0.16822 1 
36659 1 113.822 23.4402 -2.62701 6.21088 5 
36660 1 114.849 25.5476 -4.05252 0.146188 1 
36661 1 116.605 23.5874 -2.94343 0.231037 1 
36662 1 117.675 25.5746 -4.56064 0.121997 1 
36663 1 116.613 26.3361 -2.02198 5.33995 5 
36664 1 117.589 28.2996 -3.6832 0.905412 5 
36665 1 92.4233 1.66397 -3.64009 0.202427 1 
36666 1 95.2207 1.75391 -4.09253 0.106737 1 
36667 1 94.1176 2.3694 -1.37594 5.33521 5 
36668 1 95.2213 4.41466 -3.11264 0.238109 1 
36669 1 97.0242 2.53409 -2.07386 5.1864 5 
36670 1 98.0508 4.54529 -3.68561 7.12216 5 
36671 1 97.1834 5.26238 -1.03224 9.76673 5 
36672 1 98.004 7.23675 -2.91178 5.39045 5 
36673 1 100.824 7.33949 -3.44229 5.94742 5 
36674 1 100.948 10.1277 -2.36544 3.00752 5 
36675 1 102.441 8.10432 -1.3994 8.53433 5 
36676 1 103.773 10.1902 -2.80288 0.189098 1 
36677 1 103.809 12.8894 -1.82962 2.26592 5 
36678 1 106.637 13.0358 -2.22865 3.24455 5 
36679 1 106.592 15.7413 -1.51848 9.38829 5 
36680 1 109.668 15.7886 -1.88995 5.63441 5 
36681 1 109.771 18.6231 -1.03176 4.83978 5 
36682 1 112.687 19.0564 -1.25897 6.93777 5 
36683 1 118.317 24.1418 -0.645423 6.50158 5 
36684 1 96.0619 0.499053 -0.554929 10.6308 5 
40459 1 116.856 39.4897 -14.7922 7.75396e-05 1 
40479 1 91.5166 12.9477 -14.7751 6.21345e-05 1 
40483 1 94.412 15.7575 -14.3496 9.58768e-05 1 
40485 1 97.2348 15.8474 -14.835 8.4782e-05 1 
40487 1 97.3055 18.5619 -13.9233 0.000112552 1 
40489 1 100.128 18.6497 -14.4119 7.66087e-05 1 
40491 1 100.197 21.361 -13.5056 0.000106847 1 
40493 1 103.019 21.449 -13.9985 8.09042e-05 1 
40495 1 103.088 24.1599 -13.1008 0.000141709 1 
40496 1 104.187 26.1987 -14.7919 8.79775e-05 1 
40497 1 105.912 24.2519 -13.5939 8.78036e-05 1 
40499 1 105.982 26.9659 -12.7019 0.000159642 1 
40500 1 107.081 29.0085 -14.3886 0.000109983 1 
40501 1 108.806 27.0633 -13.1891 0.000129874 1 
40502 1 109.905 29.1053 -14.8716 7.91504e-05 1 
40503 1 108.875 29.7815 -12.2974 0.000325969 1 
40504 1 109.974 31.8253 -13.977 0.000159056 1 
40505 1 111.697 29.8824 -12.7758 0.00014784 1 
40506 1 112.797 31.9227 -14.4525 8.66404e-05 1 
40507 1 111.764 32.6036 -11.8782 0.00031291 1 
40508 1 112.865 34.6439 -13.5516 0.000155013 1 
40509 1 114.584 32.7026 -12.3497 0.000150751 1 
40510 1 115.686 34.7381 -14.0229 9.93138e-05 1 
40511 1 114.651 35.4234 -11.4436 0.000275754 1 
40512 1 115.754 37.4572 -13.1159 0.000151267 1 
40513 1 117.472 35.5167 -11.9128 0.000258528 1 
40514 1 118.575 37.5464 -13.5878 0.00013208 1 
40515 1 117.537 38.2334 -11.0003 0.000378131 1 
40516 1 118.642 40.2609 -12.6803 0.000151017 1 
40517 1 80.639 0.426095 -12.6421 8.84738e-05 1 
40518 1 81.7399 2.46982 -14.3298 3.39845e-05 1 
40519 1 83.4614 0.514965 -13.1311 8.22403e-05 1 
40520 1 84.5607 2.55923 -14.8197 3.73963e-05 1 
40521 1 83.5301 3.23218 -12.2359 7.08545e-05 1 
40522 1 84.6298 5.27809 -13.9223 4.97668e-05 1 
40523 1 86.3497 3.32182 -12.7276 0.000110457 1 
40524 1 87.4497 5.36823 -14.4143 7.62801e-05 1 
40525 1 86.419 6.04337 -11.8318 0.000177616 1 
40526 1 87.5193 8.08993 -13.5152 9.41093e-05 1 
40527 1 89.2388 6.13407 -12.3278 0.000178185 1 
40528 1 90.341 8.18168 -14.0074 9.86331e-05 1 
40529 1 89.3088 8.85894 -11.4285 0.000198981 1 
40530 1 90.4124 10.9049 -13.1023 9.58232e-05 1 
40531 1 92.1309 8.95169 -11.9216 0.000218938 1 
40532 1 93.2361 10.9976 -13.5906 0.000106404 1 
40533 1 92.2043 11.6764 -11.0105 0.000250268 1 
40534 1 93.3089 13.7187 -12.6776 0.000160308 1 
40535 1 95.028 11.7697 -11.4973 0.000265896 1 
40536 1 96.1323 13.8104 -13.1628 0.000149683 1 
40537 1 95.1017 14.4901 -10.5759 0.000426352 1 
40538 1 96.2046 16.5272 -12.2457 0.000208843 1 
40539 1 97.9239 14.5813 -11.0612 0.000307184 1 
40540 1 99.027 16.6162 -12.7324 0.000165259 1 
40541 1 97.998 17.295 -10.1388 0.00050127 1 
40542 1 99.0992 19.3279 -11.819 0.000197384 1 
40543 1 100.82 17.3828 -10.6276 0.000637294 1 
40544 1 101.921 19.415 -12.3106 0.000202463 1 
40545 1 100.895 20.0916 -9.71322 0.00109566 1 
40546 1 101.991 22.1243 -11.4071 0.000235585 1 
40547 1 103.718 20.1792 -10.214 0.000394806 1 
40548 1 104.814 22.2141 -11.904 0.000173371 1 
40549 1 103.788 22.8887 -9.3127 0.000912832 1 
40550 1 104.884 24.9251 -11.0106 0.000307439 1 
40551 1 106.612 22.9807 -9.81557 0.00040295 1 
40552 1 107.709 25.0218 -11.5033 0.000172208 1 
40553 1 106.684 25.6937 -8.92533 0.00074676 1 
40554 1 107.782 27.738 -10.6115 0.000552779 1 
40555 1 109.511 25.7998 -9.4129 0.00103594 1 
40556 1 110.6 27.8416 -11.0956 0.000508488 1 
40557 1 109.585 28.5225 -8.511 0.00338411 1 
40558 1 110.666 30.5626 -10.1987 0.00100937 1 
40559 1 112.388 28.6298 -8.99882 0.00374763 1 
40560 1 113.483 30.6662 -10.6756 0.00032975 1 
40561 1 112.442 31.3518 -8.09292 0.00618212 1 
40562 1 113.546 33.3876 -9.77025 0.000791197 1 
40563 1 115.266 31.4545 -8.57462 0.0017386 1 
40564 1 116.369 33.4862 -10.2431 0.000340541 1 
40565 1 115.327 34.1751 -7.66664 0.00477012 1 
40566 1 116.432 36.2071 -9.3263 0.000962002 1 
40567 1 118.147 34.2727 -8.1261 0.00107268 1 
40568 1 118.201 36.9907 -7.1949 0.00537939 1 
40569 1 82.4307 1.18527 -10.5489 0.000423328 1 
40570 1 85.2518 1.27449 -11.0369 0.000280835 1 
40571 1 84.2232 1.94335 -8.45887 0.00318449 1 
40572 1 85.3208 3.99551 -10.1455 0.000361829 1 
40573 1 87.0434 2.0342 -8.9484 0.00101031 1 
40574 1 88.1404 4.08508 -10.6417 0.000327651 1 
40575 1 87.1178 4.76156 -8.06663 0.00377771 1 
40576 1 88.2106 6.81136 -9.74938 0.000527809 1 
40577 1 89.9348 4.85411 -8.56291 0.00106738 1 
40578 1 91.0284 6.90264 -10.2469 0.000397733 1 
40579 1 90.004 7.58338 -7.66887 0.001593 1 
40580 1 91.0993 9.62894 -9.34614 0.000762204 1 
40581 1 92.8138 7.6705 -8.16838 0.00245631 1 
40582 1 93.9213 9.72257 -9.83703 0.000553762 1 
40583 1 92.8903 10.3942 -7.2652 0.00355005 1 
40584 1 93.9984 12.4475 -8.91601 0.000783564 1 
40585 1 95.7146 10.4935 -7.75096 0.00263865 1 
40586 1 96.8202 12.5423 -9.40023 0.000786555 1 
40587 1 95.7959 13.2179 -6.81289 0.00556049 1 
40588 1 96.8933 15.2595 -8.46863 0.00128983 1 
40589 1 98.6064 13.317 -7.29203 0.00568079 1 
40590 1 99.712 15.3494 -8.95565 0.001422 1 
40591 1 98.6737 16.0228 -6.34728 0.00949136 1 
40592 1 99.7908 18.0598 -8.02489 0.00489832 1 
40593 1 101.5 16.1026 -6.86594 0.0113326 1 
40594 1 102.62 18.1453 -8.53094 0.00222083 1 
40595 1 101.613 18.8132 -5.93934 0.0209664 1 
40596 1 102.703 20.8565 -7.61804 0.00219481 1 
40597 1 104.44 18.9133 -6.44224 0.0125605 1 
40598 1 105.522 20.9447 -8.12239 0.00160032 1 
40599 1 104.525 21.627 -5.51909 0.0151085 1 
40600 1 105.587 23.6508 -7.231 0.00388284 1 
40601 1 107.32 21.7102 -6.02326 0.0146432 1 
40602 1 108.413 23.7503 -7.73388 0.00263421 1 
40603 1 107.381 24.4018 -5.16923 0.0422429 1 
40604 1 108.497 26.4687 -6.84503 0.0059309 1 
40605 1 110.227 24.5273 -5.66089 0.0306313 1 
40606 1 111.321 26.5946 -7.31647 0.0148412 1 
40607 1 110.327 27.2763 -4.7708 0.149664 1 
40608 1 111.387 29.3298 -6.38669 0.0247537 1 
40609 1 113.109 27.4409 -5.15115 0.142502 1 
40610 1 114.159 29.4181 -6.90775 0.0387527 1 
40611 1 113.165 30.1235 -4.2232 0.63411 5 
40612 1 114.209 32.13 -6.00971 0.0444157 1 
40613 1 115.888 30.2332 -4.8026 0.864901 5 
40614 1 117.038 32.2536 -6.45415 0.0122317 1 
40615 1 115.932 32.9573 -3.88477 5.67994 5 
40616 1 117.103 34.9772 -5.5371 0.0412889 1 
40617 1 118.78 33.0768 -4.32525 0.26376 1 
40618 1 118.831 35.7372 -3.32536 0.294779 1 
40619 1 98.6672 59.864 -6.75353 0.0102805 1 
40620 1 101.492 59.9488 -7.24312 0.0126335 1 
40621 1 84.8543 0.647555 -4.67114 0.248851 1 
40622 1 86.0278 2.69678 -6.37679 0.0427751 1 
40623 1 87.75 0.712653 -5.20147 0.264857 1 
40624 1 88.8434 2.80322 -6.87138 0.0138961 1 
40625 1 87.8231 3.55914 -4.30915 0.234393 1 
40626 1 88.9252 5.54983 -5.98843 0.00973831 1 
40627 1 90.6654 3.59169 -4.82859 0.0401375 1 
40628 1 91.7265 5.63218 -6.47868 0.00776233 1 
40629 1 90.7276 6.34906 -3.86874 0.116768 1 
40630 1 91.7866 8.34635 -5.5757 0.0157537 1 
40631 1 93.5224 6.37523 -4.4076 0.0362257 1 
40632 1 94.5947 8.42654 -6.10699 0.0181333 1 
40633 1 93.5809 9.0712 -3.52854 0.121286 1 
40634 1 94.6927 11.1492 -5.18611 0.0127792 1 
40635 1 96.4167 9.17951 -4.10236 0.221587 1 
40636 1 97.5145 11.2806 -5.65616 0.0250747 1 
40637 1 96.4725 11.9199 -3.07216 0.340476 1 
40638 1 97.5841 13.9881 -4.65889 0.0411279 1 
40639 1 99.3123 12.0497 -3.52901 0.138614 1 
40640 1 100.388 14.0657 -5.19523 0.019395 1 
40641 1 99.3715 14.75 -2.55246 2.64495 5 
40642 1 100.453 16.7531 -4.27415 0.0988904 1 
40643 1 102.131 14.797 -3.06327 6.95397 5 
40644 1 103.325 16.8453 -4.83455 0.147511 1 
40645 1 102.351 17.5045 -2.39218 6.84765 5 
40646 1 103.473 19.6168 -3.84908 0.18498 1 
40647 1 105.171 17.6633 -2.80641 1.05011 1 
40648 1 106.263 19.7006 -4.33086 0.0780357 1 
40649 1 105.297 20.4394 -1.5634 5.5924 5 
40650 1 106.322 22.3719 -3.3504 0.18961 1 
40651 1 108.066 20.4846 -2.23616 4.98572 5 
40652 1 109.086 22.4739 -3.93701 0.249596 1 
40653 1 108.223 23.1461 -1.10263 7.50694 5 
40654 1 109.189 25.1687 -3.16755 0.427251 1 
40655 1 110.986 23.2998 -2.1123 9.51102 5 
40656 1 112.041 25.4093 -3.58072 0.362151 1 
40657 1 110.819 25.7772 -1.00329 7.67772 5 
40658 1 112.046 28.114 -2.41037 3.51927 5 
40659 1 113.758 26.2405 -1.43708 4.73431 5 
40660 1 114.896 28.3673 -2.94993 0.897075 5 
40661 1 114.906 31.4868 -1.59559 12.4104 5 
40662 1 116.71 29.5625 -0.753174 9.62803 5 
40663 1 117.591 31.0659 -2.79735 5.85515 5 
40664 1 117.423 33.6256 -1.61647 9.12016 5 
40665 1 86.6643 1.56317 -2.85583 10.0731 5 