ITEM: TIMESTEP
0
ITEM: NUMBER OF ATOMS
10742
ITEM: BOX BOUNDS xy xz yz pp pp ss
0.0000000000000000e+00 1.8172076315800001e+02 1.5819000057000000e+01
0.0000000000000000e+00 3.6392296399000003e+01 0.0000000000000000e+00
-1.7428518587475867e+02 1.9155724724970872e+02 0.0000000000000000e+00
ITEM: ATOMS id type x y z c_csym c_cna 
43739 1 164.002 0.852294 -14.8898 3.33505e-05 1 
45410 1 165.73 8.21794 -14.4114 3.75828e-05 1 
45556 1 157.431 4.62821 -14.7029 8.62736e-05 1 
45560 1 161.279 4.7486 -13.453 6.42789e-05 1 
45561 1 163.505 6.48301 -13.9323 4.45447e-05 1 
45562 1 163.753 3.66746 -14.4107 4.04756e-05 1 
45563 1 165.132 4.86989 -12.2071 0.000116529 1 
45607 1 152.983 1.16325 -13.7524 0.000157244 1 
45608 1 155.207 2.89542 -14.2267 0.000120609 1 
45609 1 155.454 0.0788885 -14.7026 8.7641e-05 1 
45611 1 156.83 1.28246 -12.4951 0.000260201 1 
45612 1 159.054 3.01514 -12.9741 0.000127871 1 
45613 1 159.303 0.198875 -13.4523 6.63973e-05 1 
45614 1 161.528 1.93285 -13.9314 4.75803e-05 1 
45615 1 160.677 1.40186 -11.2493 0.000225541 1 
45616 1 162.904 3.13486 -11.727 0.00020954 1 
45617 1 163.156 0.319387 -12.2057 0.000125048 1 
45618 1 165.382 2.05404 -12.685 7.81259e-05 1 
45619 1 164.536 1.52212 -10.0028 0.000668475 1 
46998 1 161.385 13.7273 -14.7033 8.53577e-05 1 
47001 1 165.234 13.8485 -13.4533 6.23213e-05 1 
47165 1 156.937 10.2617 -13.7526 0.000153919 1 
47166 1 159.161 11.9943 -14.2272 0.000118731 1 
47167 1 159.408 9.17779 -14.7032 8.56078e-05 1 
47169 1 160.784 10.3817 -12.4959 0.000258975 1 
47170 1 163.008 12.1149 -12.9748 0.000128326 1 
47171 1 163.256 9.29872 -13.4535 6.2234e-05 1 
47172 1 165.482 11.0332 -13.9324 4.39833e-05 1 
47173 1 164.631 10.5023 -11.2504 0.00021626 1 
47329 1 148.623 6.67455 -14.0536 0.000287366 1 
47330 1 150.852 8.40652 -14.5304 0.000184568 1 
47333 1 152.486 6.79836 -12.8078 0.00027976 1 
47334 1 154.712 8.5297 -13.2794 0.000200941 1 
47335 1 154.96 5.71242 -13.7525 0.000155093 1 
47336 1 157.184 7.44475 -14.227 0.00011994 1 
47337 1 156.338 6.91825 -11.5452 0.000464202 1 
47338 1 158.561 8.64985 -12.0197 0.000352955 1 
47339 1 158.807 5.83194 -12.4956 0.000259243 1 
47340 1 161.031 7.56495 -12.9746 0.00012765 1 
47341 1 160.176 7.03588 -10.289 0.000771832 1 
47342 1 162.403 8.76835 -10.7701 0.000275373 1 
47343 1 162.654 5.95191 -11.2501 0.000219864 1 
47344 1 164.881 7.68542 -11.7278 0.000200627 1 
47345 1 164.023 7.15355 -9.0453 0.00268589 1 
47448 1 140.313 3.0757 -14.3114 0.000212992 1 
47449 1 142.537 4.81121 -14.7968 0.000213792 1 
47452 1 144.166 3.21094 -13.0921 0.000478757 1 
47453 1 146.395 4.94286 -13.5745 0.000406485 1 
47454 1 146.647 2.1257 -14.0554 0.00027978 1 
47455 1 148.875 3.85774 -14.5313 0.000185208 1 
47456 1 148.029 3.3376 -11.8644 0.00061628 1 
47457 1 150.258 5.06733 -12.3363 0.000330273 1 
47458 1 150.509 2.24935 -12.8083 0.000281914 1 
47459 1 152.735 3.98059 -13.2795 0.000202122 1 
47460 1 151.891 3.45809 -10.6065 0.00080459 1 
47461 1 154.115 5.1879 -11.0745 0.000598349 1 
47462 1 154.361 2.36897 -11.5449 0.000463902 1 
47463 1 156.584 4.10033 -12.0193 0.000351722 1 
47464 1 155.732 3.57514 -9.33233 0.00191428 1 
47465 1 157.952 5.304 -9.80553 0.00186917 1 
47466 1 158.199 2.48616 -10.2884 0.000774602 1 
47467 1 160.426 4.21823 -10.7696 0.000282491 1 
47468 1 159.562 3.68907 -8.08622 0.00255628 1 
47469 1 161.795 5.42433 -8.57324 0.00279373 1 
47470 1 162.047 2.60314 -9.04453 0.00270869 1 
47471 1 164.282 4.33787 -9.52992 0.00109883 1 
47472 1 163.428 3.80755 -6.87082 0.011826 1 
47473 1 165.664 5.54193 -7.33608 0.00781082 1 
47484 1 138.088 1.3381 -13.8257 0.000214097 1 
47485 1 140.56 0.261571 -14.8014 0.000190535 1 
47486 1 141.94 1.47835 -12.6076 0.000489817 1 
47487 1 144.418 0.393614 -13.5775 0.000368542 1 
47488 1 145.798 1.60799 -11.389 0.00102903 1 
47489 1 148.281 0.51826 -12.3374 0.000322064 1 
47490 1 149.663 1.72822 -10.143 0.00112406 1 
47491 1 152.138 0.638776 -11.0745 0.000598145 1 
47492 1 151.294 0.119729 -8.39783 0.00404308 1 
47493 1 153.513 1.84549 -8.86036 0.0028646 1 
47494 1 155.975 0.754643 -9.80506 0.00187853 1 
47495 1 155.106 0.226998 -7.09955 0.0148193 1 
47496 1 157.329 1.96022 -7.59659 0.00595956 1 
47497 1 159.818 0.874496 -8.57253 0.00281134 1 
47498 1 158.949 0.357195 -5.91353 0.0429749 1 
47499 1 161.172 2.06869 -6.35282 0.0529346 1 
47500 1 163.688 0.991338 -7.33493 0.00783196 1 
47501 1 162.844 0.460824 -4.69503 0.0856932 1 
47502 1 165.096 2.19099 -5.15136 0.034296 1 
48420 1 165.341 22.8252 -14.7027 8.76956e-05 1 
48588 1 160.892 19.3603 -13.7529 0.000155485 1 
48589 1 163.116 21.0926 -14.2271 0.000120666 1 
48590 1 163.363 18.2765 -14.7031 8.62758e-05 1 
48592 1 164.739 19.4804 -12.4954 0.000263109 1 
48752 1 152.577 15.7716 -14.0532 0.000283183 1 
48753 1 154.806 17.504 -14.5308 0.000179305 1 
48756 1 156.44 15.8965 -12.8081 0.00027758 1 
48757 1 158.666 17.6282 -13.2799 0.000199963 1 
48758 1 158.914 14.8111 -13.7528 0.000154565 1 
48759 1 161.138 16.5436 -14.2272 0.000119236 1 
48760 1 160.293 16.0173 -11.5455 0.000467724 1 
48761 1 162.515 17.749 -12.0197 0.000360489 1 
48762 1 162.761 14.9314 -12.4959 0.000259995 1 
48763 1 164.986 16.6642 -12.9744 0.000129929 1 
48764 1 164.13 16.1357 -10.2889 0.000781699 1 
48916 1 144.265 12.1718 -14.3038 0.000236186 1 
48917 1 146.49 13.9072 -14.7926 0.000224532 1 
48920 1 148.119 12.3074 -13.0877 0.000511063 1 
48921 1 150.348 14.0395 -13.5726 0.000410489 1 
48922 1 150.6 11.2231 -14.0529 0.000286964 1 
48923 1 152.829 12.9553 -14.5303 0.000182637 1 
48924 1 151.982 12.4349 -11.863 0.000619641 1 
48925 1 154.212 14.165 -12.336 0.000324019 1 
48926 1 154.463 11.3474 -12.8078 0.000279568 1 
48927 1 156.689 13.0789 -13.2796 0.000200234 1 
48928 1 155.845 12.5564 -10.6066 0.000810113 1 
48929 1 158.07 14.2867 -11.0749 0.000606752 1 
48930 1 158.315 11.4678 -11.5454 0.000465736 1 
48931 1 160.538 13.1996 -12.0199 0.00035725 1 
48932 1 159.687 12.6744 -9.3329 0.00193939 1 
48933 1 161.906 14.4037 -9.80591 0.00186898 1 
48934 1 162.153 11.5859 -10.2892 0.000773707 1 
48935 1 164.38 13.3184 -10.77 0.000275461 1 
48936 1 163.515 12.7894 -8.08666 0.00250292 1 
48937 1 165.749 14.5249 -8.57322 0.002801 1 
49079 1 135.967 8.5493 -14.5625 0.000163439 1 
49083 1 139.821 8.69677 -13.3268 0.000317479 1 
49084 1 142.042 10.4351 -13.8143 0.000285062 1 
49085 1 142.289 7.62409 -14.306 0.000232008 1 
49086 1 144.514 9.35934 -14.7935 0.000223412 1 
49087 1 143.667 8.84142 -12.107 0.000587034 1 
49088 1 145.892 10.575 -12.5989 0.000561729 1 
49089 1 146.142 7.75934 -13.0888 0.000507238 1 
49090 1 148.371 9.49124 -13.5728 0.000411928 1 
49091 1 147.52 8.97613 -10.9024 0.00149212 1 
49092 1 149.751 10.7052 -11.3854 0.00107317 1 
49093 1 150.005 7.88631 -11.8632 0.000619598 1 
49094 1 152.234 9.61614 -12.3358 0.000327684 1 
49095 1 151.385 9.0977 -9.67255 0.000766674 1 
49096 1 153.617 10.8262 -10.1424 0.00113225 1 
49097 1 153.868 8.00718 -10.6065 0.000807502 1 
49098 1 156.092 9.73718 -11.0747 0.000602649 1 
49099 1 155.249 9.21806 -8.39813 0.00410522 1 
49100 1 157.468 10.9443 -8.86092 0.00290404 1 
49101 1 157.71 8.12463 -9.3327 0.00192481 1 
49102 1 159.929 9.85381 -9.80591 0.00186446 1 
49103 1 159.061 9.32598 -7.10043 0.0147099 1 
49104 1 161.284 11.0599 -7.59729 0.00592688 1 
49105 1 161.539 8.2391 -8.08669 0.00252611 1 
49106 1 163.772 9.97473 -8.57357 0.00278239 1 
49107 1 162.903 9.45706 -5.91426 0.0426884 1 
49108 1 165.125 11.1695 -6.35362 0.0526788 1 
49109 1 165.405 8.35824 -6.87134 0.0117688 1 
49240 1 127.653 4.91972 -14.837 5.33172e-05 1 
49244 1 131.515 5.0623 -13.6044 0.0001149 1 
49245 1 133.742 6.8066 -14.083 0.000144282 1 
49246 1 133.989 4.00076 -14.5683 0.000143094 1 
49248 1 135.376 5.21376 -12.3623 0.000494101 1 
49249 1 137.599 6.95613 -12.8413 0.000459936 1 
49250 1 137.844 4.14894 -13.3337 0.00030853 1 
49251 1 140.066 5.88744 -13.8185 0.000271946 1 
49252 1 139.226 5.36834 -11.1233 0.00093958 1 
49253 1 141.446 7.10607 -11.6145 0.00063344 1 
49254 1 141.692 4.29368 -12.1122 0.000547211 1 
49255 1 143.916 6.02718 -12.6015 0.00054744 1 
49256 1 143.067 5.51632 -9.91467 0.0016496 1 
49257 1 145.291 7.24661 -10.4102 0.0015841 1 
49258 1 145.544 4.42798 -10.9047 0.00145212 1 
49259 1 147.774 6.15682 -11.3864 0.00106897 1 
49260 1 146.922 5.6462 -8.72599 0.00585996 1 
49261 1 149.156 7.37321 -9.20566 0.00296709 1 
49262 1 149.409 4.54892 -9.67306 0.000775471 1 
49263 1 151.64 6.2772 -10.1425 0.00113058 1 
49264 1 150.79 5.7602 -7.49266 0.00645853 1 
49265 1 153.02 7.48649 -7.94411 0.00412147 1 
49266 1 153.272 4.66875 -8.39792 0.00407973 1 
49267 1 155.491 6.39473 -8.86064 0.00288701 1 
49268 1 154.651 5.88269 -6.16202 0.0317889 1 
49269 1 156.853 7.60492 -6.63706 0.016996 1 
49270 1 157.084 4.77619 -7.10002 0.0147638 1 
49271 1 159.307 6.5098 -7.59705 0.00593457 1 
49272 1 158.417 5.98066 -4.89842 0.0769261 1 
49273 1 160.659 7.71609 -5.40081 0.0436038 1 
49274 1 160.926 4.90674 -5.91399 0.0427356 1 
49275 1 163.149 6.61882 -6.35354 0.0527408 1 
49276 1 162.235 6.119 -3.60144 1.63942 5 
49277 1 164.544 7.84333 -4.26109 0.152869 1 
49278 1 164.82 5.01084 -4.69608 0.0856671 1 
49332 1 123.199 1.43263 -13.8664 7.19357e-05 1 
49333 1 125.426 3.17619 -14.3529 6.09374e-05 1 
49334 1 125.674 0.369172 -14.8376 5.10082e-05 1 
49336 1 127.059 1.57094 -12.6432 0.000115586 1 
49337 1 129.287 3.317 -13.1249 0.000104902 1 
49338 1 129.536 0.511288 -13.6076 0.000100409 1 
49339 1 131.763 2.25687 -14.0884 0.00012198 1 
49340 1 130.922 1.71996 -11.4089 0.000271279 1 
49341 1 133.15 3.46773 -11.8847 0.000342519 1 
49342 1 133.396 0.662863 -12.3702 0.000379754 1 
49343 1 135.62 2.40732 -12.8502 0.000349756 1 
49344 1 134.782 1.88123 -10.1593 0.00136279 1 
49345 1 137.007 3.62793 -10.6416 0.00122917 1 
49346 1 137.248 0.818742 -11.1363 0.000587005 1 
49347 1 139.47 2.55813 -11.624 0.000570665 1 
49348 1 138.632 2.04764 -8.9282 0.00195476 1 
49349 1 140.849 3.78388 -9.41788 0.00140932 1 
49350 1 141.093 0.967797 -9.92634 0.00134561 1 
49351 1 143.316 2.69853 -10.4153 0.00145621 1 
49352 1 142.464 2.195 -7.72813 0.00770345 1 
49353 1 144.691 3.92479 -8.23537 0.00498457 1 
49354 1 144.946 1.09741 -8.7297 0.00571794 1 
49355 1 147.179 2.82458 -9.20725 0.00296288 1 
49356 1 146.321 2.32433 -6.56911 0.0209532 1 
49357 1 148.551 4.03306 -7.01398 0.00928653 1 
49358 1 148.812 1.21132 -7.49313 0.00642135 1 
49359 1 151.042 2.93741 -7.94411 0.00408935 1 
49360 1 150.193 2.41013 -5.30142 0.0433059 1 
49361 1 152.422 4.14223 -5.74223 0.0298434 1 
49362 1 152.673 1.33352 -6.16167 0.0316237 1 
49363 1 154.876 3.0555 -6.63669 0.0169268 1 
49364 1 154.055 2.5349 -3.87601 0.480186 1 
49365 1 156.213 4.25812 -4.35208 0.267076 1 
49366 1 156.439 1.4313 -4.89805 0.076914 1 
49367 1 158.682 3.1662 -5.4004 0.0437444 1 
49368 1 157.686 2.59963 -2.6872 6.34595 5 
49369 1 160.072 4.38207 -3.27768 1.77173 5 
49370 1 160.258 1.56912 -3.60064 1.64084 5 
49371 1 162.567 3.29297 -4.2606 0.153014 1 
49372 1 161.855 2.75706 -1.64475 7.29167 5 
49373 1 163.983 4.44144 -2.13529 5.71416 5 
49374 1 164.261 1.64093 -2.56202 0.215795 1 
49375 1 165.481 2.78034 -0.238219 10.9625 5 
49376 1 132.557 0.131834 -9.68859 0.00164474 1 
49377 1 136.411 0.30444 -8.43959 0.00226606 1 
49378 1 140.252 0.469477 -7.23524 0.00570152 1 
49379 1 144.102 0.612072 -6.07168 0.0320014 1 
49380 1 147.94 0.708594 -4.88175 0.0567495 1 
49381 1 151.792 0.766361 -3.49341 0.382607 1 
49382 1 155.556 0.845194 -2.06548 2.57061 5 
49383 1 160.06 0.793085 -0.225911 11.4052 5 
49384 1 163.247 1.04939 0.00633836 10.8923 5 
50008 1 164.847 28.4577 -13.7527 0.00015925 1 
50172 1 156.532 24.8692 -14.0554 0.000260814 1 
50173 1 158.761 26.6019 -14.5325 0.000167217 1 
50176 1 160.395 24.9945 -12.8089 0.000273457 1 
50177 1 162.622 26.726 -13.2801 0.00020194 1 
50178 1 162.869 23.9091 -13.7528 0.00015757 1 
50179 1 165.094 25.6412 -14.2268 0.000123269 1 
50180 1 164.247 25.1152 -11.545 0.000474122 1 
50336 1 148.219 21.2673 -14.3056 0.000232273 1 
50337 1 150.444 23.0032 -14.7955 0.000214974 1 
50340 1 152.073 21.4036 -13.0898 0.000495622 1 
50341 1 154.302 23.1364 -13.575 0.000386982 1 
50342 1 154.554 20.3203 -14.0542 0.000275957 1 
50343 1 156.784 22.0529 -14.5317 0.000174802 1 
50344 1 155.936 21.5324 -11.8645 0.000600658 1 
50345 1 158.166 23.2629 -12.3372 0.000308116 1 
50346 1 158.417 20.4456 -12.8086 0.000276 1 
50347 1 160.644 22.1772 -13.28 0.000200839 1 
50348 1 159.8 21.655 -10.607 0.000801426 1 
50349 1 162.024 23.3851 -11.0748 0.000614013 1 
50350 1 162.27 20.5665 -11.5453 0.000470518 1 
50351 1 164.493 22.2978 -12.0193 0.000364354 1 
50352 1 163.641 21.7734 -9.33229 0.00196628 1 
50498 1 139.921 17.6447 -14.5592 0.00015802 1 
50502 1 143.774 17.7917 -13.3247 0.000311805 1 
50503 1 145.995 19.5302 -13.8144 0.000281273 1 
50504 1 146.242 16.7196 -14.3038 0.000235808 1 
50505 1 148.467 18.4552 -14.7934 0.000222913 1 
50506 1 147.62 17.9366 -12.1064 0.00059034 1 
50507 1 149.845 19.6706 -12.5999 0.000557455 1 
50508 1 150.096 16.8555 -13.0882 0.000507742 1 
50509 1 152.325 18.5879 -13.5734 0.000404199 1 
50510 1 151.474 18.0724 -10.9028 0.00148757 1 
50511 1 153.705 19.802 -11.3867 0.00104999 1 
50512 1 153.959 16.9836 -11.8635 0.000613886 1 
50513 1 156.189 18.714 -12.3365 0.000317504 1 
50514 1 155.34 18.1955 -9.67321 0.000734647 1 
50515 1 157.572 19.9246 -10.1431 0.00111672 1 
50516 1 157.822 17.1058 -10.6069 0.00080811 1 
50517 1 160.047 18.8361 -11.075 0.00061022 1 
50518 1 159.204 18.3174 -8.39833 0.00412867 1 
50519 1 161.422 20.0437 -8.86079 0.00292166 1 
50520 1 161.664 17.2242 -9.33276 0.00195545 1 
50521 1 163.884 18.9531 -9.80551 0.00188081 1 
50522 1 163.015 18.426 -7.10004 0.0147619 1 
50523 1 165.238 20.1593 -7.59646 0.00597677 1 
50524 1 165.493 17.339 -8.08613 0.00253386 1 
50662 1 131.609 14.0171 -14.8321 5.34753e-05 1 
50666 1 135.471 14.1584 -13.5968 0.000132081 1 
50667 1 137.696 15.9021 -14.0772 0.000144096 1 
50668 1 137.944 13.097 -14.5596 0.000162794 1 
50670 1 139.33 14.3085 -12.353 0.000467996 1 
50671 1 141.552 16.0509 -12.836 0.000458582 1 
50672 1 141.797 13.2442 -13.3245 0.000316478 1 
50673 1 144.019 14.9827 -13.8133 0.000284074 1 
50674 1 143.178 14.4628 -11.1156 0.000950547 1 
50675 1 145.399 16.2009 -11.6112 0.000651018 1 
50676 1 145.644 13.389 -12.1057 0.000591456 1 
50677 1 147.868 15.1229 -12.5987 0.000562859 1 
50678 1 147.02 14.6114 -9.91056 0.00172679 1 
50679 1 149.245 16.3423 -10.4091 0.00160034 1 
50680 1 149.497 13.5243 -10.9021 0.00149836 1 
50681 1 151.728 15.2536 -11.3857 0.00106717 1 
50682 1 150.876 14.7428 -8.72503 0.00588246 1 
50683 1 153.11 16.4704 -9.2059 0.0029896 1 
50684 1 153.363 13.6466 -9.67272 0.000753701 1 
50685 1 155.594 15.3753 -10.1427 0.00112724 1 
50686 1 154.745 14.8585 -7.49295 0.00646551 1 
50687 1 156.975 16.5854 -7.94445 0.00408297 1 
50688 1 157.226 13.7677 -8.39828 0.00412969 1 
50689 1 159.445 15.4941 -8.86097 0.00291581 1 
50690 1 158.606 14.9825 -6.16231 0.0319205 1 
50691 1 160.808 16.705 -6.63708 0.0170934 1 
50692 1 161.038 13.8761 -7.10044 0.0147042 1 
50693 1 163.261 15.61 -7.59704 0.00594469 1 
50694 1 162.371 15.0812 -4.89845 0.0769503 1 
50695 1 164.613 16.8166 -5.4004 0.0437177 1 
50696 1 164.88 14.0074 -5.91395 0.0426537 1 
50829 1 127.155 10.5317 -13.8636 7.33242e-05 1 
50830 1 129.382 12.2745 -14.3486 5.88485e-05 1 
50831 1 129.631 9.46876 -14.8341 5.27252e-05 1 
50833 1 131.016 10.6698 -12.6364 0.000120449 1 
50834 1 133.244 12.4143 -13.1168 0.00011832 1 
50835 1 133.493 9.61063 -13.5992 0.000129203 1 
50836 1 135.72 11.3544 -14.0787 0.000146125 1 
50837 1 134.88 10.8175 -11.3959 0.000338161 1 
50838 1 137.106 12.5633 -11.8723 0.000454453 1 
50839 1 137.354 9.7611 -12.3552 0.000472586 1 
50840 1 139.576 11.5035 -12.8369 0.000466361 1 
50841 1 138.739 10.9765 -10.1385 0.00200811 1 
50842 1 140.961 12.7221 -10.6272 0.0011322 1 
50843 1 141.202 9.91545 -11.117 0.000959866 1 
50844 1 143.422 11.6535 -11.6114 0.000647408 1 
50845 1 142.585 11.1415 -8.90671 0.0020516 1 
50846 1 144.8 12.8785 -9.40796 0.00152373 1 
50847 1 145.043 10.0638 -9.91098 0.00171542 1 
50848 1 147.268 11.7944 -10.4088 0.00160498 1 
50849 1 146.415 11.2901 -7.71902 0.00811575 1 
50850 1 148.644 13.0207 -8.2319 0.00521293 1 
50851 1 148.899 10.1945 -8.72485 0.00588563 1 
50852 1 151.132 11.9218 -9.20546 0.00298622 1 
50853 1 150.275 11.4216 -6.5671 0.0213438 1 
50854 1 152.506 13.1308 -7.01371 0.00913524 1 
50855 1 152.767 10.3092 -7.49271 0.00647811 1 
50856 1 154.997 12.0358 -7.9443 0.00411239 1 
50857 1 154.149 11.5086 -5.30193 0.0434615 1 
50858 1 156.378 13.2413 -5.74265 0.0300168 1 
50859 1 156.629 10.4324 -6.16232 0.0318641 1 
50860 1 158.831 12.1549 -6.63726 0.017047 1 
50861 1 158.011 11.6343 -3.87623 0.482501 1 
50862 1 160.167 13.3582 -4.35262 0.267547 1 
50863 1 160.394 10.5308 -4.89868 0.0769391 1 
50864 1 162.636 12.2665 -5.40078 0.0435753 1 
50865 1 161.64 11.6995 -2.68754 6.34308 5 
50866 1 164.025 13.4826 -3.27743 1.7706 5 
50867 1 164.211 10.6696 -3.6015 1.63982 5 
50868 1 165.807 11.8577 -1.64491 7.28895 5 
50993 1 118.849 6.91753 -14.1038 6.04753e-05 1 
50994 1 121.073 8.65844 -14.594 5.70673e-05 1 
50997 1 122.704 7.04604 -12.8884 0.000105288 1 
50998 1 124.929 8.78891 -13.3771 9.05468e-05 1 
50999 1 125.177 5.98282 -13.8659 7.37934e-05 1 
51000 1 127.404 7.72591 -14.3509 6.00006e-05 1 
51001 1 126.562 7.18094 -11.6702 0.000114284 1 
51002 1 128.788 8.92536 -12.1539 0.000107521 1 
51003 1 129.038 6.12152 -12.6404 0.000115874 1 
51004 1 131.266 7.86644 -13.1204 0.000113542 1 
51005 1 130.421 7.32366 -10.4425 0.00030479 1 
51006 1 132.652 9.07016 -10.9195 0.000328401 1 
51007 1 132.902 6.27036 -11.4019 0.000341005 1 
51008 1 135.129 8.01603 -11.8762 0.000446873 1 
51009 1 134.29 7.47887 -9.19197 0.00177015 1 
51010 1 136.518 9.23052 -9.66687 0.00180401 1 
51011 1 136.763 6.42977 -10.1446 0.00202805 1 
51012 1 138.984 8.1749 -10.6303 0.00111347 1 
51013 1 138.155 7.6556 -7.93131 0.00637153 1 
51014 1 140.368 9.40044 -8.40565 0.00421108 1 
51015 1 140.609 6.59441 -8.91095 0.0019821 1 
51016 1 142.824 8.33103 -9.40977 0.00151808 1 
51017 1 141.993 7.82848 -6.69347 0.00313322 1 
51018 1 144.2 9.56404 -7.20463 0.00730771 1 
51019 1 144.439 6.74249 -7.72094 0.00799021 1 
51020 1 146.667 8.4727 -8.23233 0.00516797 1 
51021 1 145.818 7.97638 -5.5657 0.0347608 1 
51022 1 148.056 9.70917 -6.06577 0.0327122 1 
51023 1 148.298 6.87294 -6.56724 0.0211481 1 
51024 1 150.528 8.58182 -7.01349 0.00921238 1 
51025 1 149.664 8.08292 -4.35082 0.804349 5 
51026 1 151.898 9.8062 -4.88171 0.0576602 1 
51027 1 152.171 6.95914 -5.30164 0.0434424 1 
51028 1 154.4 8.69155 -5.74251 0.0299923 1 
51029 1 153.496 8.18531 -3.14501 0.161043 1 
51030 1 155.749 9.86496 -3.49422 0.384977 1 
51031 1 156.033 7.08426 -3.87612 0.481769 1 
51032 1 158.19 8.80786 -4.35255 0.267406 1 
51033 1 157.351 8.20474 -1.18954 9.46258 5 
51034 1 159.51 9.94409 -2.06589 2.57038 5 
51035 1 159.663 7.14922 -2.6875 6.34448 5 
51036 1 162.049 8.93212 -3.27776 1.77082 5 
51037 1 161.406 8.07445 -0.829291 12.7001 5 
51038 1 164.013 9.89223 -0.226516 11.4058 5 
51039 1 163.831 7.30712 -1.64517 7.2909 5 
51141 1 110.549 3.31524 -14.3387 3.82086e-05 1 
51142 1 112.772 5.05397 -14.8293 3.68884e-05 1 
51145 1 114.404 3.43677 -13.1225 6.48535e-05 1 
51146 1 116.626 5.17698 -13.6133 6.05303e-05 1 
51147 1 116.871 2.36804 -14.1039 5.4374e-05 1 
51148 1 119.095 4.10915 -14.5948 5.37033e-05 1 
51149 1 118.257 3.56081 -11.9077 0.000109611 1 
51150 1 120.48 5.30354 -12.3988 0.000111933 1 
51151 1 120.726 2.49628 -12.8895 9.96538e-05 1 
51152 1 122.951 4.23957 -13.379 9.44209e-05 1 
51153 1 122.111 3.69115 -10.6966 0.000266459 1 
51154 1 124.336 5.43614 -11.1844 0.00018346 1 
51155 1 124.584 2.63094 -11.6731 0.000115282 1 
51156 1 126.81 4.37622 -12.1576 9.3899e-05 1 
51157 1 125.967 3.82855 -9.4766 0.000243459 1 
51158 1 128.194 5.57612 -9.96255 0.000307999 1 
51159 1 128.443 2.77374 -10.448 0.000259509 1 
51160 1 130.673 4.5221 -10.9263 0.000267351 1 
51161 1 129.826 3.97577 -8.25131 0.00101968 1 
51162 1 132.056 5.73009 -8.72687 0.00130828 1 
51163 1 132.309 2.93095 -9.2039 0.00120857 1 
51164 1 134.539 4.68429 -9.67767 0.0021229 1 
51165 1 133.699 4.15427 -7.00818 0.0195617 1 
51166 1 135.924 5.90025 -7.43993 0.0153824 1 
51167 1 136.176 3.1105 -7.95064 0.00807597 1 
51168 1 138.391 4.8541 -8.41464 0.00456194 1 
51169 1 137.561 4.34506 -5.68845 0.0311696 1 
51170 1 139.786 6.09086 -6.19152 0.00973093 1 
51171 1 140.019 3.28207 -6.70622 0.00361367 1 
51172 1 142.224 5.01692 -7.20975 0.00693453 1 
51173 1 141.398 4.52547 -4.4743 0.0419776 1 
51174 1 143.606 6.23702 -4.99204 0.0540006 1 
51175 1 143.841 3.42855 -5.56882 0.0335565 1 
51176 1 146.079 5.16088 -6.06697 0.0325383 1 
51177 1 145.29 4.64015 -3.41771 1.05214 5 
51178 1 147.492 6.39821 -3.89407 0.800426 5 
51179 1 147.686 3.53408 -4.35142 0.811368 5 
51180 1 149.92 5.2571 -4.8815 0.0573968 1 
51181 1 149.072 4.76356 -2.25396 6.86039 5 
51182 1 151.231 6.45103 -2.71825 5.57394 5 
51183 1 151.517 3.63599 -3.14462 0.160138 1 
51184 1 153.771 5.31529 -3.49389 0.384124 1 
51185 1 152.682 4.80411 -0.839264 10.4496 5 
51186 1 154.941 6.5685 -1.35072 4.51948 5 
51187 1 155.373 3.65527 -1.18956 9.45665 5 
51188 1 157.533 5.39423 -2.06566 2.57099 5 
51189 1 159.307 6.12213 0.0489664 11.5908 5 
51190 1 159.43 3.52462 -0.829264 12.7042 5 
51191 1 162.037 5.34217 -0.226676 11.4071 5 
51192 1 165.221 5.59848 0.00535289 10.8881 5 
51208 1 108.326 1.5767 -13.848 4.11631e-05 1 
51209 1 110.793 0.504534 -14.829 3.28465e-05 1 
51210 1 112.181 1.69674 -12.6312 8.09192e-05 1 
51211 1 114.647 0.627363 -13.6118 6.18442e-05 1 
51212 1 113.812 0.0767471 -10.9207 0.000255686 1 
51213 1 116.034 1.81857 -11.4153 0.00013034 1 
51214 1 118.501 0.753586 -12.398 9.14411e-05 1 
51215 1 117.664 0.201264 -9.70911 0.000299039 1 
51216 1 119.887 1.94577 -10.2028 0.000301035 1 
51217 1 122.358 0.885553 -11.185 0.00017649 1 
51218 1 121.519 0.333949 -8.50336 0.00154261 1 
51219 1 123.744 2.08215 -8.99344 0.00048282 1 
51220 1 126.217 1.02477 -9.96588 0.00033148 1 
51221 1 125.374 0.473658 -7.29042 0.00192279 1 
51222 1 127.597 2.22567 -7.77165 0.000927163 1 
51223 1 130.077 1.17847 -8.7344 0.00103796 1 
51224 1 129.224 0.628137 -6.0666 0.0134748 1 
51225 1 131.456 2.38413 -6.52583 0.0152674 1 
51226 1 133.939 1.35282 -7.46367 0.0113509 1 
51227 1 133.083 0.82519 -4.74894 0.166544 1 
51228 1 135.348 2.59908 -5.28588 0.0708098 1 
51229 1 137.807 1.54694 -6.22447 0.0109241 1 
51230 1 136.991 1.06098 -3.53541 0.0469954 1 
51231 1 139.217 2.80032 -3.98293 0.037006 1 
51232 1 141.632 1.69002 -5.00009 0.0638104 1 
51233 1 140.821 1.19732 -2.21711 2.15075 5 
51234 1 143.03 2.93404 -2.89368 0.202974 1 
51235 1 145.512 1.84947 -3.89599 0.805913 5 
51236 1 144.773 1.30917 -1.31422 3.68492 5 
51237 1 147.184 2.90415 -0.911364 13.3473 5 
51238 1 147.091 0.216126 -2.25411 6.85627 5 
51239 1 149.251 1.90253 -2.71757 5.57093 5 
51240 1 148.746 2.05268 1.41204 2.64963 5 
51241 1 150.444 3.10043 -0.566623 11.3528 5 
51242 1 150.703 0.255543 -0.838463 10.458 5 
51243 1 152.963 2.0191 -1.3506 4.52476 5 
51244 1 157.33 1.57295 0.0493298 11.5907 5 
51575 1 160.489 33.9683 -14.057 0.000250013 1 
51576 1 162.718 35.7008 -14.5327 0.000176979 1 
51579 1 164.351 34.0924 -12.809 0.000279614 1 
51739 1 152.174 30.3653 -14.3135 0.000181579 1 
51740 1 154.4 32.1026 -14.8018 0.000172352 1 
51743 1 156.029 30.502 -13.0952 0.000399559 1 
51744 1 158.259 32.2355 -13.5785 0.000331581 1 
51745 1 158.51 29.4184 -14.0567 0.000243881 1 
51746 1 160.74 31.1512 -14.5331 0.000165838 1 
51747 1 159.892 30.6306 -11.8665 0.000542893 1 
51748 1 162.122 32.3611 -12.3381 0.000299781 1 
51749 1 162.373 29.5433 -12.8091 0.000271252 1 
51750 1 164.6 31.2747 -13.2801 0.000202947 1 
51751 1 163.755 30.7524 -10.6069 0.000781228 1 
51901 1 143.873 26.7402 -14.5641 0.000123926 1 
51905 1 147.727 26.8866 -13.332 0.000254179 1 
51906 1 149.949 28.6265 -13.8227 0.000229544 1 
51907 1 150.196 25.8154 -14.309 0.000216339 1 
51908 1 152.422 27.5522 -14.7987 0.00019343 1 
51909 1 151.575 27.032 -12.1135 0.000531353 1 
51910 1 153.801 28.7677 -12.6068 0.000462221 1 
51911 1 154.05 25.9522 -13.0923 0.000458071 1 
51912 1 156.28 27.6855 -13.577 0.00035324 1 
51913 1 155.429 27.1693 -10.9074 0.00132066 1 
51914 1 157.661 28.8999 -11.3901 0.000908413 1 
51915 1 157.914 26.0814 -11.8655 0.000568869 1 
51916 1 160.144 27.8119 -12.3378 0.000297033 1 
51917 1 159.294 27.2936 -9.67442 0.000657183 1 
51918 1 161.526 29.0224 -10.1434 0.00105753 1 
51919 1 161.777 26.2039 -10.6069 0.000793987 1 
51920 1 164.002 27.9336 -11.0745 0.000608528 1 
51921 1 163.157 27.4153 -8.39743 0.00399795 1 
51922 1 165.376 29.1407 -8.85989 0.00284784 1 
51923 1 165.618 26.3218 -9.33168 0.00194622 1 
52065 1 135.562 23.1142 -14.8312 5.20408e-05 1 
52069 1 139.423 23.2543 -13.5974 0.00012686 1 
52070 1 141.649 24.9977 -14.0799 0.000124545 1 
52071 1 141.897 22.1924 -14.5605 0.000147251 1 
52073 1 143.282 23.4031 -12.3558 0.000419465 1 
52074 1 145.504 25.1452 -12.8413 0.000405061 1 
52075 1 145.75 22.3389 -13.327 0.000297581 1 
52076 1 147.972 24.0777 -13.8175 0.00027153 1 
52077 1 147.131 23.5564 -11.1201 0.00093616 1 
52078 1 149.352 25.295 -11.6175 0.000626745 1 
52079 1 149.597 22.484 -12.1088 0.00058243 1 
52080 1 151.823 24.2186 -12.6027 0.000533119 1 
52081 1 150.974 23.7059 -9.91483 0.00170966 1 
52082 1 153.199 25.4378 -10.4139 0.00150638 1 
52083 1 153.451 22.6205 -10.9046 0.00144767 1 
52084 1 155.683 24.3507 -11.3882 0.000997912 1 
52085 1 154.83 23.8396 -8.72758 0.0057575 1 
52086 1 157.064 25.5681 -9.20812 0.00290982 1 
52087 1 157.317 22.7446 -9.67391 0.000698568 1 
52088 1 159.549 24.4737 -10.1434 0.0010904 1 
52089 1 158.699 23.9576 -7.49321 0.00626544 1 
52090 1 160.928 25.6842 -7.94404 0.00389534 1 
52091 1 161.18 22.8668 -8.39807 0.00408839 1 
52092 1 163.399 24.5926 -8.86025 0.00290222 1 
52093 1 162.559 24.0822 -6.16143 0.0314602 1 
52094 1 164.76 25.8035 -6.6356 0.0168357 1 
52095 1 164.992 22.9751 -7.09931 0.0148393 1 
52233 1 131.11 19.6295 -13.8618 7.25442e-05 1 
52234 1 133.336 21.3719 -14.3469 5.72135e-05 1 
52235 1 133.586 18.5656 -14.8313 5.3576e-05 1 
52237 1 134.97 19.7664 -12.634 0.000125468 1 
52238 1 137.196 21.5106 -13.1158 0.000120993 1 
52239 1 137.447 18.7064 -13.5963 0.000131599 1 
52240 1 139.672 20.4499 -14.0776 0.000138061 1 
52241 1 138.832 19.9129 -11.3943 0.000344808 1 
52242 1 141.059 21.6583 -11.8728 0.000439659 1 
52243 1 141.306 18.856 -12.3533 0.000457235 1 
52244 1 143.528 20.5982 -12.8373 0.000445767 1 
52245 1 142.692 20.0709 -10.1383 0.00197977 1 
52246 1 144.913 21.816 -10.6295 0.00108824 1 
52247 1 145.155 19.0099 -11.1166 0.000948812 1 
52248 1 147.375 20.748 -11.613 0.000649724 1 
52249 1 146.538 20.2356 -8.90799 0.00207484 1 
52250 1 148.754 21.9724 -9.41097 0.00153992 1 
52251 1 148.997 19.1588 -9.91172 0.00172662 1 
52252 1 151.222 20.8899 -10.4107 0.00158229 1 
52253 1 150.369 20.3853 -7.72054 0.00806535 1 
52254 1 152.598 22.1165 -8.23419 0.00513207 1 
52255 1 152.853 19.2911 -8.72592 0.00586942 1 
52256 1 155.087 21.0192 -9.20686 0.00298185 1 
52257 1 154.23 20.5192 -6.56839 0.0216206 1 
52258 1 156.46 22.2294 -7.0147 0.00893129 1 
52259 1 156.722 19.4081 -7.49324 0.00640876 1 
52260 1 158.951 21.1351 -7.9445 0.00401219 1 
52261 1 158.103 20.609 -5.3018 0.0433628 1 
52262 1 160.331 22.3419 -5.74205 0.0298883 1 
52263 1 160.583 19.5327 -6.16207 0.0318032 1 
52264 1 162.784 21.2548 -6.63652 0.0170798 1 
52265 1 161.963 20.7358 -3.87534 0.482334 1 
52266 1 164.12 22.4586 -4.35131 0.267988 1 
52267 1 164.347 19.6312 -4.89788 0.0770594 1 
52268 1 165.593 20.7998 -2.68681 6.34487 5 
52397 1 122.806 16.0157 -14.1041 6.15086e-05 1 
52398 1 125.029 17.7568 -14.594 5.37777e-05 1 
52401 1 126.66 16.1441 -12.8868 0.00010505 1 
52402 1 128.885 17.8869 -13.3754 8.97867e-05 1 
52403 1 129.133 15.0804 -13.8625 7.37965e-05 1 
52404 1 131.359 16.8231 -14.3475 5.91233e-05 1 
52405 1 130.517 16.2781 -11.6665 0.000112998 1 
52406 1 132.743 18.0222 -12.1506 0.000108893 1 
52407 1 132.993 15.218 -12.6346 0.000125451 1 
52408 1 135.22 16.9624 -13.1157 0.000120923 1 
52409 1 134.376 16.4192 -10.437 0.000323109 1 
52410 1 136.605 18.1657 -10.9159 0.00035521 1 
52411 1 136.856 15.3652 -11.3941 0.000344612 1 
52412 1 139.083 17.1109 -11.8715 0.000451203 1 
52413 1 138.243 16.5733 -9.18636 0.00183154 1 
52414 1 140.47 18.3253 -9.6643 0.00188448 1 
52415 1 140.716 15.5239 -10.1372 0.00199107 1 
52416 1 142.937 17.2694 -10.6271 0.00113065 1 
52417 1 142.108 16.7503 -7.92739 0.00687962 1 
52418 1 144.321 18.4949 -8.40465 0.00412644 1 
52419 1 144.561 15.6889 -8.90633 0.00207158 1 
52420 1 146.777 17.4258 -9.40847 0.00152951 1 
52421 1 145.947 16.9234 -6.69149 0.00315678 1 
52422 1 148.154 18.659 -7.20499 0.00737357 1 
52423 1 148.392 15.8379 -7.7192 0.00811247 1 
52424 1 150.621 17.5687 -8.23251 0.00519655 1 
52425 1 149.772 17.0726 -5.5657 0.0349434 1 
52426 1 152.011 18.806 -6.06658 0.032663 1 
52427 1 152.253 15.9703 -6.56751 0.0214125 1 
52428 1 154.483 17.6799 -7.0141 0.0091051 1 
52429 1 153.62 17.1814 -4.35144 0.80115 5 
52430 1 155.852 18.9057 -4.88208 0.0573497 1 
52431 1 156.126 16.0585 -5.30199 0.0434685 1 
52432 1 158.355 17.7916 -5.74258 0.029963 1 
52433 1 157.45 17.2862 -3.14516 0.161287 1 
52434 1 159.703 18.9667 -3.49379 0.385095 1 
52435 1 159.988 16.185 -3.87596 0.482675 1 
52436 1 162.144 17.9087 -4.35217 0.267661 1 
52437 1 161.304 17.306 -1.18913 9.47068 5 
52438 1 163.463 19.0451 -2.06535 2.57007 5 
52439 1 163.616 16.25 -2.68728 6.34201 5 
52440 1 165.36 17.1745 -0.828972 12.6969 5 
52560 1 114.507 12.4124 -14.337 5.30079e-05 1 
52561 1 116.729 14.1512 -14.8289 4.62756e-05 1 
52564 1 118.362 12.5345 -13.1217 7.84116e-05 1 
52565 1 120.584 14.2749 -13.6132 6.99648e-05 1 
52566 1 120.828 11.4664 -14.1035 6.39702e-05 1 
52567 1 123.052 13.2074 -14.5939 5.74463e-05 1 
52568 1 122.215 12.6588 -11.9059 0.000132713 1 
52569 1 124.437 14.4015 -12.3972 0.000113641 1 
52570 1 124.682 11.5948 -12.8871 0.000111713 1 
52571 1 126.908 13.3377 -13.3759 9.09553e-05 1 