ITEM: TIMESTEP
0
ITEM: NUMBER OF ATOMS
7520
ITEM: BOX BOUNDS xy xz yz pp pp ss
-6.7993329582000001e+01 6.2480356913000001e+01 -6.7993329582000001e+01
0.0000000000000000e+00 6.7301576002000004e+01 0.0000000000000000e+00
-1.0999683108037046e+02 1.1756548672809251e+02 0.0000000000000000e+00
ITEM: ATOMS id type x y z c_csym c_cna 
1 1 60.6206 0.210619 -3.64912 0.254279 1 
2 1 60.4632 1.63945 -1.31155 7.67081 5 
3 1 57.8086 0.894775 -0.544117 6.22379 5 
4 1 -1.11215 5.93505 -3.65525 0.206719 1 
5 1 -1.39808 7.44374 -1.03928 6.60535 5 
6 1 -1.73804 4.45437 -1.39578 4.4646 5 
7 1 -4.11383 6.5113 -0.903574 1.98728 5 
8 1 -0.553759 2.79016 -8.46904 0.00331774 1 
9 1 -0.818054 4.36379 -6.07202 0.0283306 1 
10 1 -1.20133 1.51445 -6.03582 0.0316659 1 
11 1 -1.46361 3.04481 -3.68987 0.345283 1 
12 1 59.025 3.28332 -5.68139 0.0155044 1 
13 1 -3.7525 4.84959 -3.27767 0.152783 1 
14 1 58.3837 2.05495 -3.15913 0.270759 1 
15 1 58.0007 3.69304 -0.704294 5.21783 5 
16 1 56.0966 3.79044 -2.82081 0.122327 1 
17 1 55.7093 5.32065 -0.473582 5.81932 5 
18 1 55.2928 2.42178 -0.2201 7.40908 5 
19 1 53.1616 4.23688 0.240622 8.22989 5 
20 1 -0.29228 1.22045 -10.8514 0.000578788 1 
21 1 59.5597 0.149673 -10.4482 0.000388008 1 
22 1 59.2943 1.71654 -8.0702 0.00217089 1 
23 1 58.6303 0.452113 -5.59033 0.0448462 1 
24 1 56.6702 0.658757 -7.66894 0.00531864 1 
25 1 56.4091 2.24165 -5.27539 0.0336663 1 
26 1 55.7874 1.04569 -2.85083 0.64052 1 
27 1 53.7783 1.17742 -4.87173 0.106898 1 
28 1 53.4654 2.68246 -2.30669 1.80303 5 
29 1 52.7574 0.22276 -0.0112648 10.7903 5 
30 1 50.9217 1.56272 -1.87777 1.85919 5 
31 1 51.1448 0.0625948 -4.3976 0.225881 1 
32 1 48.331 0.512501 -1.51965 5.78709 5 
33 1 -0.31956 11.5543 -3.93179 0.0348813 1 
34 1 -0.539843 13.1289 -1.61818 5.91501 5 
35 1 -0.975543 10.3409 -1.35996 6.62292 5 
36 1 -3.19933 12.0888 -1.21532 6.60531 5 
37 1 -0.0593272 9.99572 -6.27115 0.00834693 1 
38 1 -0.445259 7.17832 -6.1589 0.00282282 1 
39 1 -0.741079 8.732 -3.74789 0.0780279 1 
40 1 -2.68213 8.93177 -5.87061 0.00672038 1 
41 1 -2.94487 10.4908 -3.5211 0.0494658 1 
42 1 -3.32753 7.66402 -3.34566 0.122339 1 
43 1 -3.57932 9.30301 -0.953488 2.9788 5 
44 1 -5.56016 9.40975 -3.15273 0.118808 1 
45 1 -5.88962 11.0177 -0.933839 8.24243 5 
46 1 -6.34857 8.18667 -0.711564 5.91096 5 
47 1 -8.46806 9.98636 -0.300074 6.99036 5 
48 1 -0.168545 5.61856 -8.55132 0.00135921 1 
49 1 -2.13984 5.81822 -10.6317 0.000187704 1 
50 1 -2.40953 7.37665 -8.24734 0.000677749 1 
51 1 -2.79501 4.5496 -8.15201 0.000975625 1 
52 1 -3.07028 6.10623 -5.75815 0.00562038 1 
53 1 -5.03911 6.30714 -7.8376 0.00183639 1 
54 1 -5.30459 7.85953 -5.46834 0.0124919 1 
55 1 56.7723 5.03939 -5.3442 0.0130405 1 
56 1 -6.00549 6.59409 -2.99508 0.0637406 1 
57 1 54.5202 6.78469 -5.03004 0.0110731 1 
58 1 -8.26288 8.36907 -2.69064 0.0622817 1 
59 1 53.8197 5.53698 -2.49107 0.0858334 1 
60 1 53.5887 7.13535 -0.0579427 6.96891 5 
61 1 51.609 7.29157 -2.23018 0.0407755 1 
62 1 51.3927 8.92057 0.0834724 8.00594 5 
64 1 -1.87459 4.25664 -13.0171 5.75441e-05 1 
65 1 60.2148 1.42255 -12.9231 5.50798e-05 1 
66 1 -2.52917 2.98666 -10.54 0.000223167 1 
67 1 57.9791 3.18952 -12.6101 9.07271e-05 1 
68 1 -4.76768 4.7511 -10.2243 0.000330299 1 
69 1 57.3232 1.92125 -10.1348 0.000503275 1 
70 1 57.0547 3.48743 -7.74621 0.00241677 1 
71 1 55.0832 3.68478 -9.80886 0.000672766 1 
72 1 54.8072 5.23582 -7.40724 0.005384 1 
73 1 54.4255 2.4228 -7.327 0.00677972 1 
74 1 54.1402 3.96561 -4.87872 0.0452701 1 
75 1 52.1855 4.16778 -6.97302 0.00651807 1 
76 1 51.8962 5.71722 -4.58212 0.00899218 1 
77 1 51.5347 2.88572 -4.44641 0.0401029 1 
78 1 51.2522 4.42088 -2.03664 0.169879 1 
79 1 49.2924 4.65884 -4.14838 0.0141282 1 
80 1 49.0265 6.22012 -1.77539 5.09885 5 
81 1 48.6199 3.36417 -1.66917 5.34945 5 
82 1 46.4423 5.13814 -1.16373 6.62649 5 
85 1 58.2433 1.62684 -14.9942 2.88791e-05 1 
86 1 57.5885 0.355639 -12.5171 0.000130133 1 
87 1 55.6173 0.560033 -14.5848 4.50048e-05 1 
88 1 55.3518 2.12308 -12.1991 0.000155901 1 
89 1 54.6952 0.855128 -9.72376 0.00105531 1 
90 1 52.726 1.05654 -11.7839 0.000225661 1 
91 1 52.4574 2.6172 -9.38634 0.00106511 1 
92 1 51.7999 1.34352 -6.89578 0.0101948 1 
93 1 49.8393 1.55543 -8.97123 0.00104104 1 
94 1 49.5747 3.11098 -6.55182 0.00548615 1 
95 1 49.1953 0.287607 -6.49161 0.0065311 1 
96 1 48.9507 1.83304 -4.04152 0.0432839 1 
97 1 46.9693 2.05921 -6.15146 0.0179754 1 
98 1 46.6745 3.60123 -3.67057 0.143903 1 
99 1 46.3451 0.816127 -3.72105 0.362709 1 
100 1 46.106 2.23874 -0.973098 8.90802 5 
101 1 44.1121 2.48732 -3.30289 0.125864 1 
102 1 43.8394 3.97008 -0.922465 2.69184 5 
103 1 43.4987 1.121 -0.807891 2.93468 5 
104 1 41.1579 3.01468 -0.620501 5.62373 5 
105 1 47.2217 0.489856 -8.56506 0.00149298 1 
106 1 44.3447 0.964043 -5.75871 0.0129846 1 
107 1 41.5079 1.44533 -2.95415 0.0525104 1 
108 1 40.8898 0.185672 -0.459809 6.1686 5 
109 1 38.8959 0.434983 -2.63986 0.419204 1 
110 1 38.6347 1.84872 0.02618 7.19277 5 
111 1 0.00232831 15.9247 -1.88341 6.60454 5 
112 1 -2.23308 17.5995 -1.37155 0.994387 1 
113 1 -1.88636 14.6128 -6.08912 0.0134392 1 
114 1 -2.15132 16.1377 -3.7093 0.218848 1 
115 1 -2.55818 13.352 -3.62565 0.200775 1 
116 1 -2.6456 14.816 -1.13844 2.0383 1 
117 1 -4.7846 15.1167 -2.98498 6.24462 5 
118 1 -4.68 16.7094 -0.348109 6.68186 5 
119 1 -5.04338 13.81 0.0624325 10.0317 5 
120 1 -7.24755 15.5406 -0.833188 6.64704 2 
121 1 -1.36017 11.485 -10.8364 0.000178427 1 
122 1 -1.62849 13.05 -8.46587 0.00156077 1 
123 1 -2.02035 10.2107 -8.35501 0.000752776 1 
124 1 -2.28928 11.7762 -5.98985 0.00438968 1 
125 1 -4.25299 11.9888 -8.05057 0.00500105 1 
126 1 -4.5138 13.5793 -5.66701 0.144455 1 
127 1 -4.91229 10.7109 -5.5931 0.00891256 1 
128 1 -5.16896 12.3032 -3.25431 1.29337 5 
129 1 -7.14502 12.4635 -5.35255 0.057786 1 
130 1 -7.37832 14.0218 -3.06698 6.19295 5 
131 1 -7.82145 11.1992 -2.89065 0.0790499 1 
132 1 -7.92303 12.8114 -0.600795 6.89308 5 
133 1 -10.0218 12.9974 -2.55135 0.122059 1 
134 1 -10.0116 14.5691 -0.156616 7.44979 5 
135 1 -10.5948 11.7603 -0.081245 8.40777 5 
137 1 -1.09397 9.923 -13.2139 5.08538e-05 1 
138 1 -1.4845 7.08924 -13.1135 5.25878e-05 1 
139 1 -1.75137 8.6498 -10.7315 0.000145638 1 
140 1 -3.71996 8.8544 -12.8044 6.09087e-05 1 
141 1 -3.98662 10.417 -10.4265 0.000295613 1 
142 1 -4.37839 7.58028 -10.3229 0.00033707 1 
143 1 -4.64692 9.1402 -7.95006 0.00146521 1 
144 1 -6.61629 9.34146 -10.019 0.000999202 1 
145 1 -6.88349 10.8997 -7.66531 0.00671013 1 
146 1 -7.2808 8.06149 -7.53196 0.00254777 1 
147 1 -7.55226 9.61828 -5.18877 0.0103391 1 
148 1 -9.52093 9.8322 -7.23565 0.00137587 1 
149 1 -9.79153 11.4063 -4.89382 0.00531606 1 
150 1 52.284 8.55554 -4.74531 0.00496746 1 
151 1 52.0304 10.1408 -2.41496 0.0289187 1 
152 1 50.0499 10.3275 -4.45377 0.0318437 1 
153 1 49.8542 11.9313 -2.19566 4.47099 5 
154 1 49.4077 9.0912 -1.94087 4.38458 5 
155 1 47.1927 10.8576 -1.52541 5.07925 5 
163 1 -4.11069 6.02127 -12.705 7.54665e-05 1 
164 1 -6.08074 6.22527 -14.7751 4.03471e-05 1 
165 1 -6.3477 7.78413 -12.3928 0.000219159 1 
166 1 55.742 4.95359 -12.2925 0.000128721 1 
167 1 55.4719 6.50941 -9.90584 0.000868098 1 
168 1 53.5048 6.71579 -11.9747 0.000273421 1 
169 1 53.2333 8.27193 -9.5963 0.00071176 1 
170 1 52.8444 5.44206 -9.48103 0.00116836 1 
171 1 52.5668 6.99415 -7.09909 0.00205473 1 
172 1 50.6065 7.2058 -9.16687 0.000739829 1 
173 1 50.3272 8.76342 -6.79539 0.00252533 1 
174 1 49.9446 5.93273 -6.66089 0.00215542 1 
175 1 49.6546 7.4925 -4.28551 0.0113504 1 
176 1 47.7044 7.69735 -6.33661 0.00623727 1 
177 1 47.4213 9.27067 -3.95257 0.031693 1 
178 1 47.0369 6.4362 -3.78864 0.0697874 1 
179 1 46.7968 8.01591 -1.32553 6.23363 5 
180 1 44.8239 8.21295 -3.51623 0.0570461 1 
181 1 44.5472 9.80429 -1.05405 2.10824 5 
182 1 44.1784 6.83961 -1.09935 2.35496 5 
183 1 41.8012 8.70976 -0.97162 4.20733 5 
194 1 56.0084 3.39311 -14.6788 3.47454e-05 1 
196 1 53.773 5.15784 -14.3609 5.18456e-05 1 
197 1 53.3823 2.32657 -14.2656 4.4035e-05 1 
198 1 53.1152 3.88689 -11.8751 0.000180769 1 
199 1 51.1478 4.09167 -13.9449 6.65277e-05 1 
200 1 50.8798 5.65 -11.5536 0.000293325 1 
201 1 50.4919 2.8225 -11.4579 0.000222231 1 
202 1 50.2235 4.37972 -9.05633 0.00112426 1 
203 1 48.258 4.58581 -11.1331 0.000415144 1 
204 1 47.9856 6.14133 -8.73193 0.00209749 1 
205 1 47.6067 3.31993 -8.63727 0.00242918 1 
206 1 47.3297 4.87206 -6.20873 0.0160485 1 
207 1 45.3721 5.07691 -8.31622 0.0021506 1 
208 1 45.0982 6.63673 -5.91738 0.0063065 1 
209 1 44.7269 3.79566 -5.82314 0.0112198 1 
210 1 44.455 5.33206 -3.43518 0.05186 1 
211 1 42.4838 5.55813 -5.5331 0.00723158 1 
212 1 42.1969 7.1122 -3.20113 0.0862862 1 
213 1 41.8446 4.27326 -3.05922 0.0616365 1 
214 1 41.4596 5.8718 -0.781601 5.46775 5 
215 1 39.516 6.06175 -2.71998 0.127428 1 
216 1 39.1885 7.59707 -0.258875 6.04769 5 
217 1 38.9256 4.6819 -0.0878236 6.7175 5 
218 1 36.6707 6.25043 -0.0627974 8.83331 5 
227 1 50.7577 1.26099 -13.8524 6.67302e-05 1 
229 1 48.5241 3.02598 -13.5296 9.7314e-05 1 
230 1 48.134 0.194906 -13.4407 9.86464e-05 1 
231 1 47.8704 1.75785 -11.044 0.000364511 1 
232 1 45.901 1.95892 -13.1167 9.6337e-05 1 
233 1 45.6377 3.51929 -10.7191 0.000402753 1 
234 1 45.2486 0.687946 -10.635 0.000218464 1 
235 1 44.9893 2.24697 -8.23358 0.00107467 1 
236 1 43.0162 2.44985 -10.3101 0.000179161 1 
237 1 42.7542 4.00644 -7.9149 0.00132424 1 
238 1 42.3679 1.17477 -7.82648 0.000706181 1 
239 1 42.123 2.72784 -5.42478 0.0104724 1 
240 1 40.1341 2.94358 -7.50585 0.00226542 1 
241 1 39.8561 4.49904 -5.10685 0.0110807 1 
242 1 39.4993 1.67762 -5.04278 0.0241413 1 
243 1 39.2054 3.21861 -2.60478 0.130966 1 
244 1 37.2382 3.41767 -4.71232 0.0309389 1 
245 1 36.9565 4.91142 -2.37139 0.414175 1 
246 1 36.628 2.05781 -2.24016 0.464891 1 
247 1 36.3353 3.3394 0.125507 8.75238 5 
248 1 34.3648 4.02591 -1.792 1.38647 5 
250 1 43.2774 0.890328 -12.7053 5.42422e-05 1 
251 1 40.3931 1.38257 -9.90023 0.000228475 1 
252 1 39.7467 0.108435 -7.42497 0.00274705 1 
253 1 37.7683 0.312711 -9.4854 0.000427784 1 
254 1 37.5065 1.87143 -7.09563 0.00302759 1 
255 1 36.8513 0.574987 -4.62541 0.0522046 1 
256 1 34.8847 0.810139 -6.65708 0.0254419 1 
257 1 34.6315 2.39952 -4.23999 0.0960147 1 
258 1 34.0578 1.17706 -1.66676 2.06641 5 
259 1 32.0452 1.37484 -3.95031 0.25071 1 
260 1 31.7733 2.84484 -1.31742 6.88208 5 
261 1 31.5019 0.0967902 -1.67029 6.33292 5 
262 1 29.223 1.63945 -1.31155 7.6708 5 
263 1 29.3804 0.210619 -3.64912 0.254279 1 
264 1 26.5684 0.894775 -0.544117 6.22379 5 
265 1 -1.54819 23.2437 -1.72023 6.38256 5 
266 1 -1.07453 20.2802 -6.29821 0.0423168 1 
267 1 -1.28807 21.7953 -3.95827 0.603342 1 
268 1 -1.72067 18.9539 -3.86584 0.233485 1 
269 1 -1.91986 20.4086 -1.57385 5.46788 5 
270 1 -3.94219 20.796 -3.41308 0.235644 1 
271 1 -4.1243 22.3852 -0.94318 0.887668 5 
272 1 -4.42814 19.5665 -0.741777 1.8676 5 
273 1 -6.73414 21.3377 -0.290535 6.49979 5 
274 1 -0.569202 17.1638 -11.0345 0.000413525 1 
275 1 -0.827753 18.7257 -8.6574 0.0043306 1 
276 1 -1.22931 15.8874 -8.56571 0.00272687 1 
277 1 -1.48625 17.4357 -6.19553 0.0249992 1 
278 1 -3.45899 17.6563 -8.21911 0.0162042 1 
279 1 -3.71381 19.2139 -5.81724 0.0746213 1 
280 1 -4.12449 16.3846 -5.68424 0.204546 1 
281 1 -4.36477 17.9601 -3.20478 1.00453 5 
282 1 -6.31326 18.1858 -5.4891 0.110477 1 
283 1 -6.53158 19.8008 -3.11852 0.565315 1 
284 1 -6.9429 16.8942 -3.14136 1.41633 5 
285 1 -6.92281 18.5029 -0.858348 6.9499 5 
286 1 -9.18781 18.623 -2.78157 0.611606 1 
287 1 -9.17784 20.1806 -0.572659 11.0081 5 
288 1 -9.42317 17.3489 -0.346095 6.04135 5 
289 1 -11.5042 19.1212 0.49458 6.94568 5 
291 1 -0.307721 15.5984 -13.4141 9.42604e-05 1 
292 1 -0.70181 12.7595 -13.3156 6.41978e-05 1 
293 1 -0.966568 14.3239 -10.94 0.000340919 1 
294 1 -2.93366 14.5298 -13.0042 9.75275e-05 1 
295 1 -3.19599 16.0974 -10.622 0.00118238 1 
296 1 -3.59293 13.2572 -10.528 0.000665256 1 
297 1 -3.85404 14.8314 -8.14279 0.013937 1 
298 1 -5.82101 15.0279 -10.2266 0.00192603 1 
299 1 -6.07342 16.6015 -7.85584 0.0221179 1 
300 1 -6.48062 13.7499 -7.78068 0.0165244 1 
301 1 -6.71652 15.32 -5.44019 0.262682 1 
302 1 -8.71326 15.5279 -7.45427 0.00401676 1 
303 1 -8.9681 17.0938 -5.09635 0.0374042 1 
304 1 -9.38026 14.2592 -5.00894 0.0131093 1 
305 1 -9.59584 15.822 -2.64142 0.443981 1 
306 1 -11.6161 16.0634 -4.62114 0.158121 1 
307 1 -11.8609 17.5267 -1.95346 2.87791 5 
308 1 -12.2062 14.7544 -2.26994 4.9029 5 
309 1 -14.5798 16.5337 -1.67755 5.5569 5 
315 1 -3.3277 11.6909 -12.9057 5.29148e-05 1 
316 1 -5.29591 11.8953 -14.9748 5.63918e-05 1 
317 1 -5.56001 13.4596 -12.5986 0.00026941 1 
318 1 -5.9549 10.6195 -12.4975 0.000255398 1 
319 1 -6.21984 12.1821 -10.1301 0.00184727 1 
320 1 -8.18979 12.3883 -12.1889 0.000381361 1 
321 1 -8.45608 13.9562 -9.82167 0.00171061 1 
322 1 -8.85417 11.111 -9.71546 0.00107315 1 
323 1 -9.12523 12.681 -7.36237 0.00504391 1 
324 1 -11.0895 12.8868 -9.39747 0.00145608 1 
325 1 -11.3552 14.469 -7.02066 0.0072043 1 
326 1 50.7226 11.6094 -6.92744 0.00390415 1 
327 1 -12.0204 13.1944 -4.59188 0.0434497 1 
328 1 48.4914 13.3846 -6.59348 0.0109483 1 
329 1 -14.259 14.954 -4.18607 0.121288 1 
330 1 47.8092 12.1164 -4.09929 0.063567 1 
331 1 47.5094 13.6666 -1.65736 5.25622 5 
332 1 45.6002 13.8875 -3.80019 0.0289652 1 
333 1 45.2641 15.5413 -1.50453 6.16196 5 
334 1 44.8966 12.66 -1.30964 4.94358 5 
335 1 42.7527 14.4269 -1.02256 7.49181 5 
343 1 -5.68895 9.05879 -14.8746 5.66298e-05 1 
345 1 -7.92338 10.8252 -14.5631 9.61315e-05 1 
346 1 54.1643 7.98988 -14.4608 8.40314e-05 1 
347 1 -8.58423 9.54919 -12.0826 0.000299746 1 
348 1 51.9297 9.75586 -14.1468 9.56441e-05 1 
349 1 -10.8194 11.3181 -11.7698 0.000325895 1 
350 1 51.2687 8.48076 -11.6607 0.000260544 1 
351 1 50.9959 10.0412 -9.28702 0.000833568 1 
352 1 49.0346 10.2472 -11.346 0.00037265 1 
353 1 48.7632 11.8116 -8.96947 0.00154423 1 
354 1 48.3701 8.97168 -8.85047 0.00128513 1 
355 1 48.0916 10.5371 -6.47474 0.00456381 1 
356 1 46.1402 10.7399 -8.54196 0.000785958 1 
357 1 45.8663 12.3042 -6.16172 0.00594678 1 
358 1 45.477 9.47191 -6.03556 0.00400548 1 
359 1 45.2066 11.0439 -3.63159 0.0497736 1 
360 1 43.2495 11.2434 -5.75875 0.00864202 1 
361 1 42.9684 12.8321 -3.42083 0.072175 1 
362 1 42.5967 9.97378 -3.30293 0.111574 1 
363 1 42.2698 11.5548 -1.01784 3.68764 5 
364 1 40.3356 11.7564 -3.00206 0.0923471 1 
365 1 40.2022 13.3821 -0.482885 7.73844 5 
366 1 39.6383 10.4688 -0.483806 6.79721 5 
367 1 37.5845 12.3376 -0.218694 5.41408 5 
383 1 51.5381 6.92226 -14.0435 8.9526e-05 1 
385 1 49.3041 8.68714 -13.7277 0.000117412 1 
386 1 48.9138 5.85571 -13.6252 0.000113353 1 
387 1 48.6444 7.41355 -11.2353 0.000426499 1 
388 1 46.6806 7.6195 -13.3092 0.000126002 1 
389 1 46.4118 9.17862 -10.9235 0.000270911 1 
390 1 46.0242 6.34778 -10.8152 0.000440845 1 
391 1 45.7529 7.90675 -8.42381 0.000951272 1 
392 1 43.7906 8.11177 -10.5071 0.000225432 1 
393 1 43.5198 9.67363 -8.12712 0.000841383 1 
394 1 43.1354 6.83821 -8.01595 0.00114127 1 
395 1 42.862 8.39897 -5.64385 0.00866993 1 
396 1 40.8947 8.60576 -7.71401 0.000750841 1 
397 1 40.6173 10.1742 -5.35117 0.00693799 1 
398 1 40.2222 7.32684 -5.22999 0.0107004 1 
399 1 39.8884 8.90119 -2.89314 0.112391 1 
400 1 37.9758 9.11226 -4.91479 0.010348 1 
401 1 37.7067 10.706 -2.53409 0.0684816 1 
402 1 37.2908 7.86775 -2.36473 0.305464 1 
403 1 36.998 9.5075 0.121097 6.01698 5 
404 1 35.112 9.69689 -2.11839 0.576404 5 
428 1 46.291 4.78918 -13.209 0.000127589 1 
430 1 44.0582 6.55245 -12.8938 0.000110207 1 
431 1 43.6685 3.72172 -12.7962 9.71148e-05 1 
432 1 43.4042 5.28044 -10.4033 0.000354314 1 
433 1 41.4354 5.4855 -12.4803 8.20517e-05 1 
434 1 41.1679 7.04492 -10.0932 0.000182264 1 
435 1 40.7816 4.21386 -9.9923 0.000246664 1 
436 1 40.5112 5.77137 -7.60353 0.00108633 1 
437 1 38.5447 5.97941 -9.67717 0.000232331 1 
438 1 38.2677 7.54185 -7.29267 0.00109717 1 
439 1 37.8893 4.71028 -7.18343 0.00229539 1 
440 1 37.5972 6.28043 -4.79022 0.0269259 1 
441 1 35.6491 6.47806 -6.86523 0.00167898 1 
442 1 35.3657 8.05442 -4.47326 0.016948 1 
443 1 34.9793 5.22011 -4.3564 0.0505295 1 
444 1 34.6855 6.8596 -1.97593 1.09561 5 
445 1 32.7423 6.97316 -4.06633 0.0199415 1 
446 1 32.4145 8.52528 -1.71056 6.58725 5 
447 1 32.0504 5.68715 -1.50199 6.52465 5 
448 1 29.8421 7.44374 -1.03928 6.60535 5 
468 1 41.6995 3.92562 -14.8702 3.28661e-05 1 
469 1 41.3075 1.09364 -14.7763 2.13503e-05 1 
470 1 41.0452 2.65422 -12.3843 5.66957e-05 1 
471 1 39.076 2.85827 -14.4571 3.15647e-05 1 
472 1 38.8123 4.41882 -12.0665 7.80869e-05 1 
473 1 38.4217 1.58658 -11.9706 7.12751e-05 1 
474 1 38.1588 3.14768 -9.57729 0.000344705 1 
475 1 36.1908 3.35247 -11.6529 0.000217459 1 
476 1 35.9251 4.91494 -9.26047 0.000487503 1 
477 1 35.538 2.08065 -9.1614 0.00186925 1 
478 1 35.2715 3.64724 -6.76423 0.00646546 1 
479 1 33.3086 3.85507 -8.8573 0.00150075 1 
480 1 33.0348 5.415 -6.44968 0.00767765 1 
481 1 32.6656 2.60307 -6.37806 0.0217633 1 
482 1 32.3781 4.15936 -3.91022 0.122957 1 
483 1 30.4221 4.36379 -6.07202 0.0283306 1 
484 1 30.128 5.93505 -3.65525 0.206719 1 
485 1 29.7766 3.04481 -3.68987 0.345283 1 
486 1 29.5021 4.45437 -1.39578 4.4646 5 
487 1 27.4877 4.84959 -3.27767 0.152783 1 
488 1 27.1264 6.5113 -0.903574 1.98728 5 
489 1 26.7605 3.69304 -0.704294 5.21783 5 
490 1 24.4691 5.32065 -0.473582 5.81932 5 
495 1 36.4533 1.791 -14.0445 8.9939e-05 1 
496 1 35.7999 0.518679 -11.556 0.000596525 1 
497 1 33.8317 0.72417 -13.637 8.38235e-05 1 
498 1 33.5712 2.28818 -11.2484 0.00031902 1 
499 1 32.9233 1.02216 -8.77041 0.00355343 1 
500 1 30.9479 1.22045 -10.8514 0.000578788 1 
501 1 30.6864 2.79016 -8.46904 0.00331774 1 
502 1 30.0388 1.51445 -6.03582 0.0316659 1 
503 1 28.0541 1.71654 -8.0702 0.00217089 1 
504 1 27.7848 3.28332 -5.68139 0.0155044 1 
505 1 27.3901 0.452113 -5.59033 0.0448462 1 
506 1 27.1435 2.05495 -3.15913 0.270759 1 
507 1 25.1689 2.24165 -5.27539 0.0336663 1 
508 1 24.8564 3.79044 -2.82081 0.122327 1 
509 1 24.5472 1.04569 -2.85083 0.64052 1 
510 1 24.0527 2.42178 -0.2201 7.40908 5 
511 1 22.2252 2.68246 -2.30669 1.80303 5 
512 1 21.9215 4.23688 0.240622 8.22989 5 
513 1 21.5172 0.22276 -0.0112648 10.7903 5 
514 1 28.3196 0.149673 -10.4482 0.000388008 1 
515 1 25.43 0.658757 -7.66894 0.00531864 1 
516 1 22.5381 1.17742 -4.87173 0.106898 1 
517 1 19.9046 0.0625947 -4.3976 0.225881 1 
518 1 19.6815 1.56272 -1.87777 1.85919 5 
519 1 17.0908 0.512501 -1.51965 5.78709 5 
520 1 -0.710628 29.1224 -1.1526 7.30614 5 
521 1 -0.268938 25.9799 -6.37178 0.0235372 1 
522 1 -0.524551 27.5482 -3.90804 0.237989 1 
523 1 -0.895852 24.7123 -3.93169 0.220764 1 
524 1 -1.10936 26.2508 -1.38418 7.16551 5 
525 1 -3.11667 26.4265 -3.60608 0.129957 1 
526 1 -3.31587 28.0601 -1.35221 5.6037 5 
527 1 -3.73813 25.1907 -1.14234 0.886823 1 
528 1 -5.98071 26.9631 -0.761007 3.7417 5 
529 1 -0.0220319 24.4099 -8.79513 0.00375766 1 
530 1 -0.423944 21.5716 -8.73441 0.00362574 1 
531 1 -0.664232 23.1409 -6.33871 0.0418873 1 
532 1 -2.64953 23.332 -8.3986 0.00148005 1 
533 1 -2.897 24.8841 -5.99848 0.0126359 1 
534 1 -3.29972 22.0547 -5.92644 0.0199638 1 
535 1 -3.57054 23.6106 -3.53494 0.161216 1 
536 1 -5.53403 23.8312 -5.55089 0.0236111 1 
537 1 -5.79023 25.3859 -3.13161 0.033249 1 
538 1 -6.16315 22.5777 -2.98077 0.278347 1 
539 1 -6.44704 24.1489 -0.536446 4.72824 5 
540 1 -8.42326 24.3321 -2.59574 6.73623 5 
541 1 -8.41262 26.0315 0.575005 7.43452 5 
542 1 -8.77702 23.1964 1.00399 8.72944 5 
543 1 -10.8568 24.7555 -0.155971 8.65481 5 
544 1 -0.170748 20.004 -11.1208 0.000417786 1 
545 1 -2.14027 20.2061 -13.1849 5.97324e-05 1 
546 1 -2.39794 21.7705 -10.7942 0.000326392 1 
547 1 -2.79837 18.933 -10.7082 0.000853263 1 
548 1 -3.05628 20.4944 -8.31858 0.00532265 1 
549 1 -5.02331 20.7066 -10.3867 0.000638913 1 
550 1 -5.27605 22.2758 -7.9864 0.00385085 1 
551 1 -5.6747 19.4451 -7.91914 0.00830326 1 
552 1 -5.91635 21.0304 -5.51967 0.0460659 1 
553 1 -7.90644 21.2091 -7.58473 0.00573063 1 
554 1 -8.13923 22.7921 -5.16705 0.082195 1 
555 1 -8.55683 19.9416 -5.15315 0.0458039 1 
556 1 -8.75561 21.5364 -2.79277 6.92826 5 
557 1 -10.8042 21.6558 -4.76379 0.0718339 1 
558 1 -11.0096 23.1867 -2.39296 6.76283 5 
559 1 -11.4447 20.3661 -2.20949 0.870931 1 
560 1 -11.2492 21.9396 0.142968 7.42896 5 
561 1 -13.6303 22.1462 -1.73745 6.76803 5 
565 1 -2.53749 17.3689 -13.0971 0.000111047 1 
567 1 -4.76562 19.1389 -12.7777 0.00012601 1 
568 1 -5.16331 16.3007 -12.6912 0.000228788 1 
569 1 -5.42124 17.8704 -10.3073 0.0016228 1 
570 1 -7.39291 18.0699 -12.3721 0.000227692 1 
571 1 -7.65124 19.6385 -9.9829 0.000853797 1 
572 1 -8.05312 16.7996 -9.90786 0.00109498 1 
573 1 -8.30989 18.3708 -7.52815 0.00592718 1 
574 1 -10.284 18.5666 -9.57131 0.00189217 1 
575 1 -10.5519 20.1184 -7.15676 0.01471 1 
576 1 -10.9518 17.3043 -7.09565 0.0137569 1 
577 1 -11.2412 18.8453 -4.6302 0.149396 1 
578 1 -13.1734 19.0583 -6.7204 0.087113 1 
579 1 -13.4549 20.6014 -4.20049 0.866466 5 
580 1 -13.8304 17.7932 -4.13793 0.550616 5 
581 1 -13.997 19.3048 -1.31769 9.25707 5 
582 1 -16.0209 19.5275 -4.19107 1.43901 5 
583 1 -16.2131 21.211 -2.0829 12.1997 5 
584 1 -16.6857 18.4199 -1.8124 7.76731 5 
585 1 -18.7953 20.071 -1.2156 1.86647 5 
595 1 -7.13225 16.5028 -14.7562 8.74659e-05 1 
596 1 -7.52871 13.6636 -14.6626 0.000103797 1 
597 1 -7.79222 15.23 -12.2856 0.000390573 1 
598 1 -9.76008 15.4321 -14.346 0.00011246 1 
599 1 -10.0225 16.999 -11.9624 0.000313409 1 
600 1 -10.4227 14.1591 -11.8714 0.000438283 1 
601 1 -10.6868 15.73 -9.48964 0.00132081 1 
602 1 -12.6498 15.9267 -11.5487 0.000897125 1 
603 1 -12.9101 17.4953 -9.1531 0.00896091 1 
604 1 -13.315 14.6575 -9.06685 0.00397295 1 
605 1 -13.5771 16.2339 -6.65554 0.0490259 1 
606 1 -15.5343 16.4099 -8.77288 0.00731472 1 
607 1 -15.7797 17.9602 -6.4319 0.114846 1 
608 1 46.2748 15.1391 -6.29219 0.00954883 1 
609 1 -16.4535 16.7018 -3.9564 0.224767 1 
610 1 44.0456 16.9206 -6.00613 0.0104841 1 
611 1 43.7674 18.5031 -3.67043 0.154455 1 
612 1 43.3439 15.6769 -3.54198 0.126112 1 
613 1 43.1668 17.3165 -1.1707 4.9403 5 
614 1 41.1307 17.4426 -3.04393 1.32135 5 
615 1 41.0888 19.0341 -0.548182 4.86702 5 
616 1 40.8254 16.2152 0.146898 10.1557 5 
617 1 38.5936 18.0041 -0.77649 10.5228 5 
633 1 -10.1567 12.5931 -14.2492 0.000115026 1 
635 1 -12.3872 14.3607 -13.9328 0.000152522 1 
636 1 49.6969 11.5226 -13.8321 0.000115295 1 
637 1 -13.0503 13.0868 -11.452 0.000512153 1 
638 1 47.4669 13.2885 -13.5198 0.000110813 1 
639 1 47.204 14.8502 -11.1423 0.000611237 1 
640 1 46.8044 12.0134 -11.0349 0.000280472 1 
641 1 46.5373 13.5755 -8.6586 0.00139417 1 
642 1 44.5754 13.7816 -10.7294 0.000201937 1 
643 1 44.3102 15.3476 -8.36135 0.000902645 1 
644 1 43.9116 12.5106 -8.24349 0.000627335 1 
645 1 43.6424 14.0855 -5.88152 0.00549534 1 
646 1 41.6815 14.2868 -7.9394 0.00219101 1 
647 1 41.4072 15.872 -5.55939 0.057121 1 
648 1 41.0141 13.0375 -5.44462 0.0287598 1 
649 1 40.7467 14.6395 -2.99218 0.942392 5 
650 1 38.7954 14.7772 -5.21061 0.113967 1 
651 1 38.554 16.3715 -2.97643 2.4599 5 
652 1 38.1757 13.5377 -2.70676 0.247573 1 
653 1 38.2144 15.2475 -0.531748 5.68841 5 
654 1 35.9258 15.3233 -2.30033 0.700974 1 
655 1 36.0317 16.9404 0.0190163 1.87929 5 
656 1 35.7307 14.2445 0.347935 3.16119 5 
680 1 47.0719 10.4525 -13.4147 0.000102041 1 
682 1 44.841 12.2191 -13.1051 8.11991e-05 1 
683 1 44.4482 9.38455 -12.998 7.95947e-05 1 
684 1 44.1803 10.9455 -10.6175 0.000152067 1 
685 1 42.2161 11.1515 -12.6893 6.58418e-05 1 
686 1 41.9491 12.7152 -10.3124 0.000189077 1 
687 1 41.5564 9.87905 -10.2008 0.000135091 1 
688 1 41.286 11.4477 -7.82384 0.00136408 1 
689 1 39.3232 11.6463 -9.89733 0.000518797 1 
690 1 39.0551 13.2106 -7.53423 0.00723318 1 
691 1 38.6567 10.3763 -7.4088 0.00130334 1 
692 1 38.3822 11.9492 -5.04488 0.0135289 1 
693 1 36.4241 12.1562 -7.09415 0.00185317 1 
694 1 36.1544 13.7516 -4.71309 0.0534284 1 
695 1 35.7606 10.9048 -4.59993 0.0149142 1 
696 1 35.524 12.561 -2.24092 1.0086 5 
697 1 33.5413 12.6724 -4.25931 0.518622 5 
698 1 33.3914 14.1519 -1.21757 9.94319 5 
699 1 32.909 11.3724 -1.81669 7.10358 5 
700 1 30.7003 13.1289 -1.61818 5.91501 5 
729 1 42.0908 6.7575 -14.9684 3.89854e-05 1 
730 1 41.8249 8.3175 -12.5826 6.70258e-05 1 
731 1 39.8583 8.52325 -14.656 3.62386e-05 1 
732 1 39.5916 10.0841 -12.2738 8.6773e-05 1 
733 1 39.2015 7.25082 -12.1677 7.47265e-05 1 
734 1 38.9315 8.81198 -9.78473 0.000219849 1 
735 1 36.9679 9.01832 -11.8566 0.000102204 1 
736 1 36.6973 10.5827 -9.47404 0.00035126 1 
737 1 36.309 7.74768 -9.36436 0.000372047 1 
738 1 36.0318 9.3159 -6.9789 0.00168196 1 
739 1 34.0775 9.51736 -9.05589 0.000962521 1 
740 1 33.8068 11.0931 -6.66623 0.0108173 1 
741 1 33.417 8.24427 -6.56651 0.00214539 1 
742 1 33.1397 9.80856 -4.20141 0.023377 1 
743 1 31.1809 9.99572 -6.27115 0.00834693 1 
744 1 30.9206 11.5543 -3.93179 0.0348813 1 
745 1 30.4991 8.732 -3.74789 0.0780279 1 
746 1 30.2646 10.3409 -1.35996 6.62292 5 
747 1 28.2953 10.4908 -3.5211 0.0494658 1 
748 1 28.0408 12.0888 -1.21532 6.60531 5 
749 1 27.6609 9.30301 -0.953488 2.9788 5 
750 1 25.3506 11.0177 -0.933839 8.24243 5 
782 1 39.4673 5.69048 -14.5546 3.65475e-05 1 
784 1 37.235 7.45675 -14.2418 4.11521e-05 1 
785 1 36.8446 4.62388 -14.1416 5.56309e-05 1 
786 1 36.5794 6.18531 -11.7527 0.000117927 1 
787 1 34.6129 6.39069 -13.8303 5.46588e-05 1 
788 1 34.3468 7.95269 -11.4428 0.000192437 1 
789 1 33.9594 5.12067 -11.3435 0.000192066 1 
790 1 33.6912 6.68225 -8.95145 0.000741826 1 
791 1 31.7252 6.88567 -11.0367 0.000201827 1 
792 1 31.4559 8.44517 -8.65228 0.000495892 1 
793 1 31.0716 5.61856 -8.55132 0.00135921 1 
794 1 30.7949 7.17832 -6.1589 0.00282282 1 
795 1 28.8307 7.37665 -8.24734 0.000677749 1 
796 1 28.558 8.93177 -5.87061 0.00672038 1 
797 1 28.1699 6.10623 -5.75815 0.00562038 1 
798 1 27.9127 7.66402 -3.34567 0.122339 1 
799 1 25.9356 7.85953 -5.46834 0.0124919 1 
800 1 25.68 9.40975 -3.15273 0.118808 1 
801 1 25.2347 6.59409 -2.99508 0.0637406 1 
802 1 24.8916 8.18667 -0.711564 5.91096 5 
803 1 22.9773 8.36907 -2.69064 0.0622817 1 
804 1 22.7721 9.98636 -0.300074 6.99036 5 
805 1 22.3485 7.13535 -0.0579427 6.96891 5 
806 1 20.1525 8.92057 0.0834724 8.00594 5 
835 1 34.2229 3.55776 -13.7325 6.3489e-05 1 
837 1 31.9903 5.32398 -13.4229 6.00991e-05 1 
838 1 31.6 2.49079 -13.3276 8.10299e-05 1 
839 1 31.3374 4.05493 -10.9414 0.000305453 1 
840 1 29.3656 4.25664 -13.0171 5.75441e-05 1 
841 1 29.1003 5.81822 -10.6317 0.000187704 1 
842 1 28.711 2.98666 -10.54 0.000223167 1 
843 1 28.4452 4.5496 -8.15201 0.000975625 1 
844 1 26.4725 4.7511 -10.2243 0.000330299 1 
845 1 26.2011 6.30714 -7.8376 0.00183639 1 
846 1 25.8145 3.48743 -7.74621 0.00241677 1 
847 1 25.5321 5.03939 -5.3442 0.0130405 1 
848 1 23.567 5.23582 -7.40724 0.005384 1 
849 1 23.2801 6.78469 -5.03004 0.0110731 1 
850 1 22.9 3.96561 -4.87872 0.0452701 1 
851 1 22.5795 5.53698 -2.49107 0.0858334 1 
852 1 20.656 5.71722 -4.58212 0.00899218 1 
853 1 20.3688 7.29157 -2.23018 0.0407755 1 
854 1 20.012 4.42088 -2.03664 0.169879 1 
855 1 17.7863 6.22012 -1.77539 5.09885 5 
867 1 28.9746 1.42255 -12.9231 5.50798e-05 1 
868 1 27.0032 1.62684 -14.9942 2.88791e-05 1 
869 1 26.739 3.18952 -12.6101 9.0727e-05 1 
870 1 26.3483 0.355639 -12.5171 0.000130132 1 
871 1 26.083 1.92125 -10.1348 0.000503275 1 
872 1 24.1116 2.12308 -12.1991 0.000155901 1 
873 1 23.843 3.68478 -9.80886 0.000672766 1 
874 1 23.455 0.855128 -9.72376 0.00105531 1 
875 1 23.1853 2.4228 -7.327 0.00677972 1 
876 1 21.2172 2.6172 -9.38634 0.00106511 1 
877 1 20.9453 4.16778 -6.97302 0.00651806 1 
878 1 20.5597 1.34352 -6.89578 0.0101948 1 
879 1 20.2946 2.88572 -4.44641 0.0401029 1 
880 1 18.3345 3.11098 -6.55182 0.00548615 1 
881 1 18.0522 4.65884 -4.14838 0.0141282 1 
882 1 17.7105 1.83304 -4.04152 0.0432839 1 
883 1 17.3797 3.36417 -1.66917 5.34945 5 
884 1 15.4343 3.60123 -3.67057 0.143903 1 
885 1 15.2021 5.13814 -1.16373 6.62649 5 
886 1 14.8658 2.23874 -0.973098 8.90802 5 
887 1 12.5992 3.97008 -0.922465 2.69184 5 
889 1 24.3771 0.560033 -14.5848 4.50047e-05 1 
890 1 21.4858 1.05654 -11.7839 0.000225661 1 
891 1 18.5991 1.55543 -8.97123 0.00104104 1 
892 1 17.9551 0.287607 -6.49161 0.0065311 1 
893 1 15.9815 0.489856 -8.56506 0.00149298 1 
894 1 15.7291 2.05921 -6.15146 0.0179754 1 
895 1 15.1049 0.816127 -3.72105 0.362709 1 
896 1 13.1046 0.964043 -5.75871 0.0129846 1 
897 1 12.8719 2.48732 -3.30289 0.125864 1 
898 1 12.2585 1.121 -0.807891 2.93468 5 
899 1 10.2677 1.44533 -2.95415 0.0525104 1 
900 1 9.91776 3.01468 -0.620501 5.62373 5 
901 1 9.64964 0.185672 -0.459809 6.1686 5 
902 1 7.39457 1.84872 0.02618 7.19277 5 
903 1 7.6557 0.434983 -2.63986 0.419204 1 
904 1 0.0610937 34.8279 -1.66676 2.06641 5 
905 1 -0.163353 30.3549 -3.95957 0.542313 1 
906 1 -0.326616 31.9724 -1.44728 3.22196 5 
907 1 -2.34497 32.1317 -3.93093 0.398347 1 
908 1 -2.49474 33.7476 -1.67029 6.33292 5 
909 1 -2.89459 30.8964 -1.56641 2.6395 5 
910 1 -5.22781 32.572 -1.24963 3.1308 5 
911 1 -1.85541 28.9885 -8.58234 0.00666968 1 
912 1 -2.10726 30.5473 -6.23265 0.0767461 1 
913 1 -2.50018 27.7053 -6.10438 0.0410335 1 
914 1 -2.73871 29.2663 -3.78813 0.550082 1 
915 1 -4.74593 29.4682 -5.80625 0.0126177 1 
916 1 -5.00842 31.0256 -3.50371 0.125683 1 
917 1 -5.39211 28.1942 -3.30804 0.0738825 1 
918 1 -5.58228 29.785 -1.02002 3.40785 5 
919 1 -7.64402 30.0014 -2.88325 0.94472 5 
920 1 -7.70402 31.64 -0.282799 6.38193 5 
921 1 -8.03965 28.8171 0.0817636 7.09467 5 
922 1 -10.2226 30.4536 -0.550864 8.86162 5 
923 1 -1.34532 25.8744 -13.3577 9.45918e-05 1 
924 1 -1.60099 27.4333 -10.9645 0.000700519 1 
925 1 -1.99735 24.6036 -10.8758 0.000378966 1 
926 1 -2.24889 26.1588 -8.47967 0.00407808 1 
927 1 -4.22679 26.3642 -10.5542 0.000479105 1 
928 1 -4.4862 27.9168 -8.16648 0.00240289 1 
929 1 -4.8791 25.0941 -8.05992 0.00237379 1 
930 1 -5.13326 26.6414 -5.65719 0.00889245 1 
931 1 -7.10799 26.8519 -7.73239 0.0146076 1 
932 1 -7.37613 28.4062 -5.31883 0.11718 1 
933 1 -7.75958 25.5887 -5.19277 0.097727 1 
934 1 -8.03617 27.1589 -2.69319 6.09159 5 
935 1 -9.98151 27.3163 -5.03562 0.189177 1 