ITEM: TIMESTEP
0
ITEM: NUMBER OF ATOMS
6804
ITEM: BOX BOUNDS xy xz yz pp pp ss
0 231.872550853 141.856802231
0 42.409773764 0
-110.0676452879789 112.8503298928865 0
ITEM: ATOMS id type x y z c_csym c_cna 
14755 1 178.108 41.4913 -14.5381 1.43185e-05 1 
15864 1 175.737 32.3035 -14.9034 1.81047e-05 1 
15868 1 173.365 35.5878 -14.769 2.50877e-05 1 
15872 1 170.991 38.8714 -14.6338 0.000105007 1 
15876 1 168.617 42.1556 -14.4923 0.000165463 1 
15877 1 178.291 31.6004 -13.811 4.80052e-05 1 
15879 1 178.474 34.1838 -12.5815 0.000214441 1 
15880 1 175.92 34.886 -13.6767 3.95946e-05 1 
15881 1 178.2 36.5462 -14.171 3.67823e-05 1 
15883 1 176.105 37.4672 -12.4491 0.000136652 1 
15884 1 173.549 38.169 -13.5442 7.19865e-05 1 
15885 1 175.829 39.8302 -14.0404 2.81715e-05 1 
15887 1 173.733 40.7503 -12.3197 0.000240624 1 
15888 1 171.173 41.4534 -13.4107 0.000235629 1 
15889 1 178.657 36.7643 -11.3517 0.000307247 1 
15890 1 178.383 39.1267 -12.9462 4.89556e-05 1 
15891 1 178.84 39.3431 -10.1276 0.000321821 1 
15892 1 176.288 40.0476 -11.2251 0.000152421 1 
15893 1 178.565 41.708 -11.7248 8.34588e-05 1 
15894 1 179.021 41.9244 -8.91109 0.00064919 1 
16948 1 88.2767 19.1269 -14.3074 4.61721e-05 1 
16952 1 85.9057 22.4118 -14.173 4.2038e-05 1 
16956 1 173.55 25.6951 -14.0416 2.94235e-05 1 
16960 1 171.176 28.9794 -13.9096 6.10378e-05 1 
16961 1 168.62 29.6822 -14.9963 0.000101847 1 
16964 1 168.801 32.2649 -13.7714 0.000136888 1 
16965 1 166.247 32.9657 -14.8522 0.000151845 1 
16968 1 166.428 35.5478 -13.6245 0.000213757 1 
16969 1 163.879 36.2461 -14.7037 0.000116322 1 
16972 1 164.06 38.8276 -13.4732 0.000142728 1 
16973 1 161.515 39.5242 -14.5577 0.000101536 1 
16976 1 161.697 42.1051 -13.3248 0.000146109 1 
16977 1 88.4587 21.7082 -13.0795 8.18907e-05 1 
16978 1 88.1852 24.0713 -14.6696 2.05871e-05 1 
16979 1 88.6409 24.2875 -11.8542 0.000107824 1 
16980 1 86.0887 24.9919 -12.9475 5.1198e-05 1 
16981 1 178.383 26.6518 -13.4463 4.65921e-05 1 
16982 1 175.83 27.3561 -14.5391 1.44514e-05 1 
16983 1 176.287 27.5727 -11.7256 8.39938e-05 1 
16984 1 173.733 28.2766 -12.8185 4.26777e-05 1 
16985 1 176.012 29.9386 -13.3161 3.70264e-05 1 
16986 1 173.457 30.6415 -14.4071 1.76274e-05 1 
16987 1 173.916 30.8603 -11.5957 8.96909e-05 1 
16988 1 171.358 31.5621 -12.6863 9.64238e-05 1 
16989 1 173.64 33.2244 -13.1822 4.1048e-05 1 
16990 1 171.083 33.9262 -14.2719 7.76329e-05 1 
16991 1 171.541 34.1451 -11.4638 0.000391426 1 
16992 1 168.983 34.8473 -12.5458 0.000131228 1 
16993 1 171.266 36.5079 -13.0475 0.000174291 1 
16994 1 168.709 37.2098 -14.1309 0.000114889 1 
16995 1 169.165 37.428 -11.3211 0.000277208 1 
16996 1 166.609 38.1293 -12.3964 0.000240226 1 
16997 1 168.891 39.7914 -12.9068 0.00025498 1 
16998 1 166.337 40.4924 -13.984 0.00016724 1 
16999 1 166.789 40.711 -11.1708 0.000528919 1 
17000 1 164.241 41.4095 -12.2418 0.000284026 1 
17001 1 178.839 26.8669 -10.6344 0.000429408 1 
17002 1 178.566 29.2342 -12.2247 0.000121288 1 
17003 1 179.021 29.4517 -9.41859 0.000934095 1 
17004 1 176.469 30.1568 -10.5061 0.000257789 1 
17005 1 178.748 31.8199 -10.9999 0.000416971 1 
17006 1 176.195 32.5228 -12.0914 0.000113329 1 
17007 1 176.652 32.7446 -9.2825 0.00170988 1 
17008 1 174.1 33.445 -10.369 0.000596621 1 
17009 1 176.379 35.1067 -10.861 0.000289448 1 
17010 1 173.824 35.8065 -11.9554 0.000140268 1 
17011 1 174.287 36.027 -9.13623 0.00192286 1 
17012 1 171.726 36.727 -10.24 0.00105051 1 
17013 1 174.011 38.3869 -10.7313 0.000510029 1 
17014 1 171.45 39.0888 -11.8261 0.000472817 1 
17015 1 171.913 39.3062 -9.02635 0.00340175 1 
17016 1 169.347 40.0083 -10.1034 0.00104593 1 
17017 1 171.633 41.6713 -10.6078 0.00134261 1 
17018 1 169.07 42.3745 -11.6847 0.000616002 1 
17019 1 179.207 32.0422 -8.19232 0.00430515 1 
17020 1 178.932 34.4057 -9.75838 0.00297541 1 
17021 1 179.391 34.6294 -6.91396 0.0424978 1 
17022 1 176.838 35.3318 -8.04225 0.00454575 1 
17023 1 179.115 36.9824 -8.52287 0.00223902 1 
17024 1 176.567 37.6864 -9.6271 0.00115564 1 
17025 1 177.031 37.9063 -6.78912 0.0115711 1 
17026 1 174.48 38.6035 -7.91516 0.00583968 1 
17027 1 176.748 40.2652 -8.40689 0.00171866 1 
17028 1 174.198 40.9681 -9.50226 0.00383143 1 
17029 1 174.669 41.1873 -6.66254 0.0609432 1 
17030 1 172.099 41.892 -7.81833 0.00972559 1 
17031 1 179.572 37.1952 -5.67571 0.0263533 1 
17032 1 179.297 39.5587 -7.30237 0.00283422 1 
17033 1 179.753 39.7811 -4.47173 0.103755 1 
17034 1 177.203 40.4924 -5.59472 0.0392486 1 
17035 1 179.47 42.1471 -6.09866 0.00655274 1 
17036 1 179.91 42.3914 -3.3164 1.5461 5 
17999 1 159.148 30.3323 -14.9202 0.000101456 1 
18003 1 156.787 33.6085 -14.7843 6.6802e-05 1 
18007 1 154.426 36.886 -14.6559 0.000146864 1 
18011 1 152.065 40.1629 -14.5365 0.000123172 1 
18013 1 88.2786 6.64942 -14.8091 3.72138e-05 1 
18015 1 88.46 9.23211 -13.5846 3.32878e-05 1 
18016 1 85.9058 9.93681 -14.6785 2.60115e-05 1 
18019 1 86.0883 12.5189 -13.4544 4.88354e-05 1 
18020 1 83.534 13.2224 -14.5459 1.16731e-05 1 
18023 1 83.7165 15.8054 -13.3215 3.38542e-05 1 
18024 1 81.1615 16.5074 -14.4113 1.60616e-05 1 
18025 1 83.4423 18.1696 -14.9071 2.16454e-05 1 
18027 1 81.3448 19.0902 -13.1852 4.09844e-05 1 
18028 1 78.7882 19.7913 -14.2741 7.77301e-05 1 
18029 1 81.0704 21.453 -14.7711 2.71907e-05 1 
18031 1 78.9714 22.3728 -13.049 0.000176111 1 
18032 1 166.43 23.0744 -14.1319 0.000115397 1 
18033 1 168.713 24.736 -14.6348 0.00010581 1 
18035 1 166.612 25.6557 -12.9074 0.00025517 1 
18036 1 164.059 26.3565 -13.9843 0.000167079 1 
18037 1 166.339 28.0198 -14.4926 0.000165648 1 
18039 1 164.238 28.9393 -12.756 0.000364312 1 
18040 1 161.692 29.6365 -13.8329 0.000190893 1 
18041 1 163.968 31.302 -14.3434 0.00020361 1 
18043 1 161.873 32.2177 -12.5982 0.000481018 1 
18044 1 159.33 32.9123 -13.6874 0.000109843 1 
18045 1 161.604 34.5798 -14.1943 0.00014697 1 
18047 1 159.513 35.4919 -12.4553 0.00039213 1 
18048 1 156.969 36.1889 -13.5543 8.43828e-05 1 
18049 1 159.242 37.8569 -14.0532 0.000133151 1 
18051 1 157.151 38.7706 -12.3211 0.000162714 1 
18052 1 154.609 39.4659 -13.4246 0.000206623 1 
18053 1 156.882 41.1338 -13.9194 0.000113604 1 
18055 1 154.794 42.0449 -12.192 0.000302525 1 
18056 1 88.6426 11.8137 -12.3595 4.38646e-05 1 
18057 1 88.3693 14.1789 -13.9479 2.71664e-05 1 
18058 1 88.8256 14.3946 -11.1378 0.000152241 1 
18059 1 86.2709 15.102 -12.2312 0.000115886 1 
18060 1 88.5512 16.7618 -12.7228 5.83382e-05 1 
18061 1 85.9968 17.4671 -13.8154 5.15464e-05 1 
18062 1 86.4535 17.6876 -11.0043 0.000407875 1 
18063 1 83.8996 18.3895 -12.0952 0.000115876 1 
18064 1 86.1798 20.0503 -12.5844 0.000230769 1 
18065 1 83.6258 20.7519 -13.6793 4.62915e-05 1 
18066 1 84.0849 20.9728 -10.8634 0.000303579 1 
18067 1 81.5298 21.672 -11.9574 0.000143462 1 
18068 1 83.8104 23.3326 -12.4507 0.000143803 1 
18069 1 81.2543 24.034 -13.5456 7.26366e-05 1 
18070 1 81.7165 24.2518 -10.7325 0.000506462 1 
18071 1 169.171 24.9534 -11.8269 0.000474857 1 
18072 1 171.454 26.615 -12.3205 0.000243691 1 
18073 1 168.895 27.3178 -13.4113 0.000237202 1 
18074 1 169.355 27.5356 -10.6083 0.00134763 1 
18075 1 166.792 28.2386 -11.685 0.000616363 1 
18076 1 169.075 29.9011 -12.1888 0.000366783 1 
18077 1 166.518 30.6028 -13.2668 0.000330589 1 
18078 1 166.97 30.8239 -10.4616 0.00134189 1 
18079 1 164.417 31.5231 -11.5251 0.000927766 1 
18080 1 166.699 33.1859 -12.0406 0.000642406 1 
18081 1 164.149 33.8839 -13.1131 0.000285685 1 
18082 1 164.598 34.1041 -10.2923 0.00131421 1 
18083 1 162.056 34.7968 -11.3653 0.000654105 1 
18084 1 164.33 36.4648 -11.8826 0.000326296 1 
18085 1 161.785 37.1605 -12.9625 0.000164624 1 
18086 1 162.236 37.3765 -10.1339 0.000771719 1 
18087 1 159.693 38.073 -11.2212 0.000807368 1 
18088 1 161.966 39.7413 -11.7297 0.000212887 1 
18089 1 159.424 40.4375 -12.8189 0.000233745 1 
18090 1 159.875 40.6536 -9.98258 0.00111951 1 
18091 1 157.334 41.3505 -11.0834 0.000431432 1 
18092 1 89.008 16.9781 -9.91414 0.000350152 1 
18093 1 88.7319 19.3454 -11.4938 0.000328097 1 
18094 1 89.186 19.5639 -8.68231 0.00332345 1 
18095 1 86.6376 20.2725 -9.76092 0.00303038 1 
18096 1 88.9134 21.926 -10.2615 0.00053565 1 
18097 1 86.3634 22.6302 -11.3536 0.000321174 1 
18098 1 86.8208 22.8482 -8.52421 0.0022691 1 
18099 1 84.2723 23.5518 -9.62843 0.00117945 1 
18100 1 86.5464 25.2083 -10.1286 0.000327536 1 
18101 1 174.01 25.9125 -11.2261 0.000155494 1 
18102 1 174.47 26.13 -8.40763 0.00172293 1 
18103 1 171.92 26.8326 -9.50292 0.00384102 1 
18104 1 174.193 28.4949 -10.0058 0.00023223 1 
18105 1 171.637 29.1968 -11.1004 0.000394269 1 
18106 1 172.101 29.4154 -8.29252 0.00377888 1 
18107 1 169.535 30.1226 -9.39018 0.00142572 1 
18108 1 171.82 31.7812 -9.87915 0.000402608 1 
18109 1 169.257 32.4854 -10.965 0.000437064 1 
18110 1 169.722 32.7094 -8.16512 0.00244942 1 
18111 1 167.15 33.4074 -9.23845 0.00500811 1 
18112 1 169.441 35.0678 -9.73733 0.000400759 1 
18113 1 166.881 35.7677 -10.8134 0.000899583 1 
18114 1 167.338 35.9877 -8.01148 0.00733622 1 
18115 1 164.783 36.6815 -9.06319 0.00142306 1 
18116 1 167.065 38.3478 -9.58371 0.000787185 1 
18117 1 164.512 39.0456 -10.6521 0.00030908 1 
18118 1 164.97 39.2627 -7.83508 0.00069875 1 
18119 1 162.417 39.9562 -8.90243 0.00105144 1 
18120 1 164.693 41.6292 -9.41939 0.00119024 1 
18121 1 162.149 42.3219 -10.4946 0.000388627 1 
18122 1 89.3665 22.1445 -7.43854 0.00558136 1 
18123 1 89.0948 24.5022 -9.03754 0.000959901 1 
18124 1 89.5469 24.7158 -6.22533 0.0130119 1 
18125 1 87.0031 25.4236 -7.30303 0.0028515 1 
18126 1 179.293 27.0815 -7.83075 0.00718919 1 
18127 1 176.743 27.789 -8.91169 0.000650411 1 
18128 1 177.192 28.0114 -6.09897 0.00656843 1 
18129 1 174.65 28.7165 -7.19243 0.00241402 1 
18130 1 176.925 30.3756 -7.70142 0.00249099 1 
18131 1 174.377 31.082 -8.78293 0.00104276 1 
18132 1 174.844 31.3052 -5.96214 0.0381592 1 
18133 1 172.29 32.0015 -7.07383 0.00738388 1 
18134 1 174.565 33.6692 -7.54651 0.0130388 1 
18135 1 172.003 34.3664 -8.66354 0.00564626 1 
18136 1 172.459 34.6071 -5.8912 0.107255 1 
18137 1 169.907 35.2906 -6.9211 0.0197943 1 
18138 1 172.19 36.9526 -7.43437 0.0127164 1 
18139 1 169.625 37.6447 -8.51328 0.00189232 1 
18140 1 170.092 37.8461 -5.69587 0.0361387 1 
18141 1 167.529 38.5666 -6.76882 0.00980628 1 
18142 1 169.807 40.2217 -7.31582 0.00880451 1 
18143 1 167.245 40.929 -8.36599 0.00239694 1 
18144 1 167.704 41.1526 -5.57707 0.0215554 1 
18145 1 165.156 41.8509 -6.59588 0.00858251 1 
18146 1 179.743 27.3073 -5.06156 0.130174 1 
18147 1 179.471 29.6774 -6.62396 0.0120664 1 
18148 1 179.948 29.9349 -3.86026 0.148273 1 
18149 1 177.358 30.6044 -4.8977 0.0852888 1 
18150 1 179.685 32.2649 -5.38403 0.0790418 1 
18151 1 177.11 32.9657 -6.49223 0.0357103 1 
18152 1 177.574 33.1593 -3.76535 0.782592 1 
18153 1 175.038 33.8881 -4.69782 0.202702 1 
18154 1 177.29 35.5569 -5.22807 0.0692916 1 
18155 1 174.746 36.2471 -6.2949 0.0253906 1 
18156 1 175.181 36.4719 -3.4326 0.521446 5 
18157 1 172.632 37.1843 -4.61175 0.126403 1 
18158 1 174.961 38.8166 -5.09428 0.0971515 1 
18159 1 172.382 39.5242 -6.24621 0.0367124 1 
18160 1 172.874 39.7414 -3.52545 0.682755 5 
18161 1 170.278 40.4345 -4.57368 0.12737 1 
18162 1 172.566 42.1351 -5.05192 0.110402 1 
18163 1 179.822 34.8531 -3.99568 0.610563 1 
18164 1 177.696 35.8363 -2.42287 2.05406 5 
18165 1 177.506 38.1252 -3.93294 0.176459 1 
18166 1 177.989 38.2718 -0.836878 8.01319 5 
18167 1 175.493 38.9095 -2.19187 6.37359 5 
18168 1 177.66 40.6936 -2.8233 2.20037 5 
18169 1 175.12 41.4013 -3.7274 5.95116 5 
18170 1 33.2582 0.0843498 -0.347456 10.7766 5 
18171 1 31.1408 0.118264 -2.33922 6.8391 5 
19018 1 81.1625 4.02985 -14.9133 4.92182e-05 1 
19022 1 78.7898 7.31578 -14.7769 2.08877e-05 1 
19026 1 76.4168 10.5999 -14.6388 9.47482e-05 1 
19030 1 74.0432 13.8839 -14.495 0.000161423 1 
19034 1 71.673 17.1661 -14.3446 0.000203057 1 
19038 1 69.309 20.4438 -14.1947 0.000148132 1 
19042 1 156.963 23.7208 -14.0528 0.000133165 1 
19046 1 154.603 26.9975 -13.9181 0.000110994 1 
19050 1 152.243 30.2728 -13.7944 0.000180113 1 
19051 1 149.697 30.971 -14.9071 0.00011196 1 
19054 1 149.88 33.5512 -13.6794 0.000128462 1 
19055 1 147.33 34.2519 -14.7937 8.70769e-05 1 
19058 1 147.513 36.8317 -13.5681 0.00014666 1 
19059 1 144.959 37.5348 -14.6809 8.57137e-05 1 
19062 1 145.143 40.1145 -13.4592 0.000126219 1 
19063 1 142.588 40.8196 -14.5662 8.30075e-05 1 
19064 1 86.0914 0.035564 -13.9532 0.000117706 1 
19065 1 88.3727 1.69802 -14.4468 0.000109541 1 
19067 1 86.2724 2.6202 -12.7359 0.000315539 1 
19068 1 83.7169 3.32636 -13.8252 0.000159255 1 
19069 1 85.9976 4.98867 -14.3183 7.88177e-05 1 
19071 1 83.8983 5.9132 -12.5993 0.000181106 1 
19072 1 81.3444 6.61469 -13.6889 6.31577e-05 1 
19073 1 83.6251 8.27646 -14.1835 3.56745e-05 1 
19075 1 81.5285 9.19822 -12.4613 0.000112049 1 
19076 1 78.9731 9.89852 -13.5522 5.31029e-05 1 
19077 1 81.2538 11.5608 -14.0489 1.96301e-05 1 
19079 1 79.1574 12.4807 -12.3265 0.00020639 1 
19080 1 76.5988 13.1824 -13.4151 0.000216848 1 
19081 1 78.8807 14.8448 -13.9138 4.93166e-05 1 
19082 1 76.3244 15.5468 -14.9992 9.86249e-05 1 
19083 1 76.7799 15.766 -12.1918 0.000346613 1 
19084 1 74.223 16.4672 -13.2687 0.000324023 1 
19085 1 76.5056 18.1297 -13.7736 0.000133455 1 
19086 1 73.952 18.8301 -14.8536 0.000151157 1 
19087 1 74.4037 19.0503 -12.042 0.000633573 1 
19088 1 71.8539 19.748 -13.1139 0.000284651 1 
19089 1 74.1331 21.4122 -13.6254 0.000213095 1 
19090 1 161.6 22.1103 -14.7042 0.000116744 1 
19091 1 162.051 22.329 -11.883 0.0003257 1 
19092 1 159.506 23.0245 -12.9625 0.000164991 1 
19093 1 161.781 24.6916 -13.4733 0.000142139 1 
19094 1 159.236 25.3882 -14.5574 0.000101276 1 
19095 1 159.687 25.6053 -11.7293 0.000211681 1 
19096 1 157.145 26.3014 -12.8181 0.000233947 1 
19097 1 159.418 27.9689 -13.3243 0.000144675 1 
19098 1 156.876 28.6648 -14.4174 0.000120802 1 
19099 1 157.329 28.8809 -11.584 0.000342408 1 
19100 1 154.787 29.5765 -12.6861 0.000111126 1 
19101 1 157.059 31.2444 -13.1824 0.000438959 1 
19102 1 154.516 31.9412 -14.2871 8.38855e-05 1 
19103 1 154.97 32.1565 -11.4542 0.000211056 1 
19104 1 152.427 32.8529 -12.564 0.000241891 1 
19105 1 154.698 34.5217 -13.0533 0.00038611 1 
19106 1 152.154 35.2186 -14.1642 0.000144104 1 
19107 1 152.608 35.4337 -11.3301 0.000389069 1 
19108 1 150.063 36.1316 -12.4488 0.000324337 1 
19109 1 152.336 37.7982 -12.9338 0.00015791 1 
19110 1 149.79 38.4966 -14.0494 0.000219427 1 
19111 1 150.245 38.7101 -11.2168 0.00113355 1 
19112 1 147.697 39.4106 -12.3431 0.000278657 1 
19113 1 149.974 41.0747 -12.8241 0.000256881 1 
19114 1 147.423 41.7773 -13.9418 0.000137783 1 
19115 1 147.881 41.9882 -11.1211 0.000382756 1 
19116 1 88.8296 1.91223 -11.6427 0.000473555 1 
19117 1 88.5532 4.28277 -13.2245 9.80909e-05 1 
19118 1 89.0076 4.50065 -10.4187 0.00044046 1 
19119 1 86.4518 5.2086 -11.5112 0.000487338 1 
19120 1 88.7328 6.86757 -11.9985 0.000124875 1 
19121 1 86.1788 7.57317 -13.092 0.000101329 1 
19122 1 86.6322 7.79434 -10.2792 0.000634529 1 
19123 1 84.0812 8.49745 -11.3689 0.00025344 1 
19124 1 86.3609 10.1553 -11.8662 0.000111848 1 
19125 1 83.808 10.8588 -12.9575 3.49491e-05 1 
19126 1 84.2649 11.0781 -10.1413 0.000239186 1 
19127 1 81.7126 11.7799 -11.2351 0.00012689 1 
19128 1 83.9911 13.4408 -11.7338 5.58707e-05 1 
19129 1 81.437 14.1432 -12.8246 2.94765e-05 1 
19130 1 81.8967 14.3626 -10.0124 0.000195054 1 
19131 1 79.3406 15.0628 -11.1049 0.000345625 1 
19132 1 81.6201 16.7269 -11.6 8.08692e-05 1 
19133 1 79.063 17.4277 -12.6895 8.96946e-05 1 
19134 1 79.5247 17.6469 -9.88211 0.000392601 1 
19135 1 76.9619 18.3502 -10.967 0.000422797 1 
19136 1 79.2464 20.0103 -11.4659 0.000384545 1 
19137 1 76.6878 20.712 -12.5473 0.000130033 1 
19138 1 77.1464 20.9324 -9.73856 0.000399961 1 
19139 1 74.5863 21.632 -10.8142 0.000893121 1 
19140 1 166.886 23.2925 -11.322 0.000278425 1 
19141 1 164.33 23.9936 -12.3969 0.000240895 1 
19142 1 164.786 24.2119 -9.58405 0.000789861 1 
19143 1 162.233 24.9097 -10.6521 0.000307866 1 
19144 1 164.511 26.5751 -11.1709 0.000528364 1 
19145 1 161.962 27.2735 -12.2416 0.000282429 1 
19146 1 162.415 27.4931 -9.41908 0.00118692 1 
19147 1 159.87 28.1857 -10.494 0.000385721 1 
19148 1 162.142 29.8567 -11.007 0.000776938 1 
19149 1 159.6 30.5494 -12.0895 0.000236231 1 
19150 1 160.051 30.7673 -9.25516 0.00131821 1 
19151 1 157.514 31.4586 -10.341 0.00409804 1 
19152 1 159.784 33.1277 -10.8544 0.000564292 1 
19153 1 157.24 33.8228 -11.9527 0.000340361 1 
19154 1 157.693 34.0303 -9.12292 0.00742358 1 
19155 1 155.15 34.7395 -10.2138 0.00299584 1 
19156 1 157.419 36.4037 -10.7303 0.00392939 1 
19157 1 154.877 37.1023 -11.8218 0.000725588 1 
19158 1 155.321 37.3237 -8.9838 0.00829201 1 
19159 1 152.785 38.0146 -10.0979 0.000549337 1 
19160 1 155.06 39.6828 -10.5879 0.000876479 1 
19161 1 152.52 40.3768 -11.7044 0.000289653 1 
19162 1 152.969 40.5906 -8.86672 0.00182732 1 
19163 1 150.43 41.2847 -9.99388 0.000936824 1 
19164 1 89.1842 7.08681 -9.18633 0.000821962 1 
19165 1 88.9136 9.44983 -10.7732 9.11355e-05 1 
19166 1 89.3655 9.66647 -7.96232 0.00160579 1 
19167 1 86.8143 10.3738 -9.05298 0.000932796 1 
19168 1 89.0982 12.0298 -9.54333 0.00159147 1 
19169 1 86.5441 12.7364 -10.6443 0.000435507 1 
19170 1 86.9982 12.9541 -7.84202 0.00722526 1 
19171 1 84.4471 13.6593 -8.92085 0.000521526 1 
19172 1 86.7269 15.3212 -9.42544 0.000901085 1 
19173 1 84.1736 16.0249 -10.5119 0.000233813 1 
19174 1 84.6302 16.2447 -7.70691 0.00245278 1 
19175 1 82.0815 16.949 -8.787 0.00102864 1 
19176 1 84.3575 18.6118 -9.28596 0.00169006 1 
19177 1 81.8055 19.3111 -10.3718 0.000589518 1 
19178 1 82.27 19.535 -7.54868 0.0130075 1 
19179 1 79.7082 20.2314 -8.66521 0.00558909 1 
19180 1 81.9928 21.8923 -9.13784 0.00191888 1 
19181 1 79.4317 22.5918 -10.2412 0.0010516 1 
19182 1 79.8954 22.8171 -7.43528 0.0126866 1 
19183 1 167.347 23.509 -8.51393 0.00190583 1 
19184 1 169.634 25.1706 -9.027 0.00340473 1 
19185 1 167.069 25.8726 -10.1038 0.00104595 1 
19186 1 167.529 26.0857 -7.31607 0.00881062 1 
19187 1 164.966 26.7929 -8.36599 0.00239121 1 
19188 1 167.248 28.458 -8.89064 0.00268802 1 
19189 1 164.688 29.1604 -9.94507 0.0016118 1 
19190 1 165.141 29.3834 -7.14958 0.00931429 1 
19191 1 162.593 30.0812 -8.17842 0.00487053 1 
19192 1 164.864 31.7477 -8.71016 0.0052847 1 
19193 1 162.322 32.4385 -9.76204 0.00359414 1 
19194 1 162.775 32.664 -6.90506 0.0281625 1 
19195 1 160.23 33.3455 -8.01008 0.00507062 1 
19196 1 162.51 35.0103 -8.52787 0.00442747 1 
19197 1 159.971 35.7035 -9.62274 0.00678705 1 
19198 1 160.445 35.9111 -6.77793 0.101296 1 
19199 1 157.868 36.6079 -7.94461 0.0865434 1 
19200 1 160.14 38.2867 -8.38549 0.0123312 1 
19201 1 157.598 38.9913 -9.49078 0.00453924 1 
19202 1 158.022 39.2223 -6.66686 0.0832427 1 
19203 1 155.5 39.9077 -7.74475 0.0184553 1 
19204 1 157.786 41.5703 -8.23973 0.00641992 1 
19205 1 155.247 42.26 -9.35009 0.00250509 1 
19206 1 89.5588 12.244 -6.70928 0.0446054 1 
19207 1 89.2812 14.6075 -8.32913 0.00225021 1 
19208 1 89.7389 14.8083 -5.5208 0.0448535 1 
19209 1 87.1771 15.5485 -6.62991 0.011825 1 
19210 1 89.4697 17.1882 -7.11069 0.00455953 1 
19211 1 86.9132 17.9105 -8.19596 0.00420596 1 
19212 1 87.3915 18.1329 -5.3859 0.0789419 1 
19213 1 84.8162 18.8328 -6.49468 0.035463 1 
19214 1 87.0973 20.4959 -6.91573 0.04252 1 
19215 1 84.5433 21.1978 -8.0441 0.0045555 1 
19216 1 84.9956 21.4225 -5.22926 0.069167 1 
19217 1 82.452 22.112 -6.29614 0.0252642 1 
19218 1 84.7373 23.7714 -6.79004 0.0116615 1 
19219 1 82.1857 24.4682 -7.916 0.00580085 1 
19220 1 82.6672 24.6809 -5.09484 0.0970664 1 
19221 1 170.104 25.3883 -6.24665 0.0366954 1 
19222 1 172.391 27.0516 -6.66303 0.0609589 1 
19223 1 169.821 27.7561 -7.81869 0.00974075 1 
19224 1 170.288 27.999 -5.05221 0.110549 1 
19225 1 167.712 28.6843 -6.12405 0.0169464 1 
19226 1 169.998 30.3554 -6.6018 0.0173545 1 
19227 1 167.428 31.0469 -7.66968 0.00461689 1 
19228 1 167.889 31.2756 -4.87421 0.109021 1 
19229 1 165.326 31.966 -5.90557 0.0193737 1 
19230 1 167.61 33.6222 -6.46593 0.0524163 1 
19231 1 165.044 34.3256 -7.4659 0.013304 1 
19232 1 165.536 34.528 -4.64516 0.0460665 1 
19233 1 162.957 35.2318 -5.66053 0.0599833 1 
19234 1 165.25 36.8936 -6.24858 0.0126709 1 
19235 1 162.697 37.5862 -7.31065 0.00622506 1 
19236 1 163.18 37.7859 -4.51069 0.11603 1 
19237 1 160.613 38.4971 -5.56664 0.112125 1 
19238 1 162.879 40.1704 -6.08655 0.0108723 1 
19239 1 160.326 40.8649 -7.13878 0.0119817 1 
19240 1 160.784 41.0467 -4.28247 0.178453 1 
19241 1 158.232 41.788 -5.38384 0.0818415 1 
19242 1 89.9645 17.3933 -4.3184 0.0779434 1 
19243 1 89.6379 19.7833 -5.88689 0.0583392 1 
19244 1 87.5288 20.7189 -3.9967 0.60959 1 
19245 1 89.8049 22.3645 -4.60357 0.0939499 1 
19246 1 87.2783 23.0605 -5.67651 0.0263762 1 
19247 1 87.7481 23.3417 -2.78376 0.669096 1 
19248 1 85.2118 23.9897 -3.9335 0.176823 1 
19249 1 87.4596 25.6456 -4.472 0.103891 1 
19250 1 174.925 26.3568 -5.59518 0.0392892 1 
19251 1 175.382 26.5576 -2.82352 2.20022 5 
19252 1 172.842 27.2651 -3.72765 5.95215 5 
19253 1 175.086 28.954 -4.37492 0.0778687 1 
19254 1 172.561 29.6285 -5.48331 0.0908355 1 
19255 1 173.049 30 -2.70497 6.27774 5 
19256 1 170.488 30.6786 -3.82729 0.423064 1 
19257 1 172.778 32.2627 -4.29664 6.71656 5 
19258 1 170.209 32.9454 -5.36789 0.154932 1 
19259 1 170.955 33.192 -2.37998 7.04369 5 
19260 1 168.12 33.77 -3.74214 0.814339 1 
19261 1 170.354 35.4814 -4.03845 0.612899 1 
19262 1 167.811 36.1937 -5.23147 0.0661993 1 
19263 1 168.249 36.4144 -2.49509 7.06015 5 
19264 1 165.759 37.1105 -3.46746 3.88565 5 
19265 1 168.032 38.7918 -3.95194 0.233283 1 
19266 1 165.439 39.4909 -5.02421 0.0413757 1 
19267 1 166.072 39.6679 -2.21796 6.72471 5 
19268 1 163.334 40.4266 -3.29842 0.415192 1 
19269 1 165.632 42.0732 -3.73655 0.164913 1 
19270 1 87.9609 26.1217 -1.60914 5.84631 5 
19271 1 177.633 28.2553 -3.31646 1.54425 5 
19272 1 175.471 29.2699 -1.59183 6.76267 5 
19273 1 177.933 30.7272 -2.13603 6.61858 5 
19274 1 175.288 31.6258 -3.03286 2.26472 5 
19275 1 176.329 31.5929 -0.173609 8.68701 5 
19276 1 175.537 34.128 -1.70481 6.10571 5 
19277 1 172.947 34.8635 -3.16966 7.19496 5 
19278 1 173.142 34.6813 -0.545948 11.4118 5 
19279 1 170.603 35.979 -0.984825 10.3631 5 
19280 1 172.991 37.4393 -1.74006 4.06608 5 
19281 1 170.539 38.1207 -2.86142 0.893584 1 
19282 1 171.143 39.079 0.0262182 10.3285 5 
19283 1 168.437 38.7572 -0.922943 11.0624 5 
19284 1 170.849 40.8326 -1.9189 7.6433 5 
19285 1 168.207 41.3798 -2.82736 0.368708 1 
19286 1 24.3058 0.0718095 -0.904213 5.60853 5 
19287 1 178.231 33.3559 -1.20809 10.097 5 
19288 1 173.511 40.247 -0.985207 11.5106 5 
20027 1 140.216 31.6314 -14.9261 4.11312e-05 1 
20031 1 137.842 34.9181 -14.8004 3.15411e-05 1 
20035 1 135.47 38.2035 -14.673 3.37074e-05 1 
20039 1 223.114 41.4895 -14.5447 2.85135e-05 1 
20042 1 76.6038 0.704288 -13.9125 5.72917e-05 1 
20043 1 74.0476 1.40759 -14.9982 9.09524e-05 1 
20046 1 74.2276 3.99087 -13.7741 0.000118 1 
20047 1 71.6743 4.69197 -14.8539 0.000141927 1 
20050 1 71.8546 7.27458 -13.6265 0.000197904 1 
20051 1 69.3061 7.97292 -14.7049 0.000115251 1 
20054 1 69.4867 10.5547 -13.4743 0.000142084 1 
20055 1 66.9421 11.2513 -14.5581 0.000103614 1 
20058 1 67.1238 13.8323 -13.325 0.000147497 1 
20059 1 64.5816 14.5282 -14.4178 0.000123383 1 
20060 1 66.8539 16.1959 -14.9208 0.000102449 1 
20062 1 64.7648 17.108 -13.1827 0.000439473 1 
20063 1 62.2215 17.8048 -14.287 8.52194e-05 1 
20064 1 154.509 19.4723 -14.7842 6.66767e-05 1 
20066 1 152.419 20.3854 -13.0528 0.000382299 1 
20067 1 149.875 21.0823 -14.1631 0.000141271 1 
20068 1 152.147 22.7497 -14.6548 0.00014169 1 
20070 1 150.057 23.6619 -12.932 0.000153274 1 
20071 1 147.511 24.3604 -14.0464 0.000207483 1 
20072 1 149.785 26.0265 -14.534 0.000111518 1 
20074 1 147.694 26.9381 -12.8203 0.000229676 1 
20075 1 145.143 27.6406 -13.9363 0.000118402 1 
20076 1 147.421 29.3047 -14.4211 0.000138845 1 
20078 1 145.326 30.2192 -12.7151 0.000224899 1 
20079 1 142.771 30.9252 -13.824 8.51964e-05 1 
20080 1 145.051 32.5876 -14.31 9.50835e-05 1 
20082 1 142.952 33.506 -12.6031 0.000138756 1 
20083 1 140.397 34.2123 -13.7038 7.49372e-05 1 
20084 1 142.678 35.8728 -14.1943 7.54268e-05 1 
20086 1 140.578 36.7925 -12.4827 0.000120039 1 
20087 1 138.024 37.4983 -13.5787 4.094e-05 1 
20088 1 140.305 39.1582 -14.075 8.77075e-05 1 
20090 1 138.207 40.0778 -12.3595 0.000116022 1 
20091 1 225.668 40.7841 -13.4538 9.28511e-05 1 
20092 1 79.16 0.000789539 -12.8232 4.91018e-05 1 
20093 1 81.4375 1.66308 -13.3256 7.43232e-05 1 
20094 1 78.883 2.36679 -14.4132 1.80994e-05 1 
20095 1 79.3407 2.58528 -11.6032 0.000104386 1 
20096 1 76.7844 3.28778 -12.6908 8.16972e-05 1 
20097 1 79.0641 4.95111 -13.1912 4.81283e-05 1 
20098 1 76.5087 5.6529 -14.277 6.3094e-05 1 
20099 1 76.9658 5.87189 -11.4699 0.000305443 1 
20100 1 74.4085 6.57402 -12.5493 0.000107839 1 
20101 1 76.6907 8.23585 -13.0534 0.000134752 1 
20102 1 74.1352 8.93733 -14.1343 0.000103434 1 
20103 1 74.5906 9.1556 -11.3249 0.000237822 1 
20104 1 72.0355 9.85654 -12.3985 0.00022296 1 
20105 1 74.3162 11.5194 -12.9102 0.000239383 1 
20106 1 71.7637 12.22 -13.986 0.00016416 1 
20107 1 72.2157 12.4387 -11.1727 0.000510604 1 
20108 1 69.6674 13.1368 -12.2428 0.000284079 1 
20109 1 71.9433 14.8031 -12.7576 0.000359358 1 
20110 1 69.3972 15.5002 -13.8339 0.000193754 1 
20111 1 69.8474 15.7203 -11.008 0.000780172 1 
20112 1 67.3057 16.413 -12.0902 0.000236598 1 
20113 1 69.5787 18.0816 -12.599 0.000481583 1 
20114 1 67.0361 18.7761 -13.6878 0.000111083 1 
20115 1 67.4897 18.9913 -10.8548 0.000565457 1 
20116 1 154.962 19.6864 -11.9527 0.000342279 1 
20117 1 157.234 21.3558 -12.4552 0.000396366 1 
20118 1 154.69 22.0527 -13.5538 8.48232e-05 1 
20119 1 155.14 22.2675 -10.7299 0.00396827 1 
20120 1 152.599 22.966 -11.8208 0.000714353 1 
20121 1 154.872 24.6344 -12.3202 0.000166733 1 
20122 1 152.33 25.3295 -13.423 0.000196626 1 
20123 1 152.781 25.5465 -10.5862 0.000858288 1 
20124 1 150.24 26.2403 -11.7018 0.000267477 1 
20125 1 152.514 27.9083 -12.19 0.000293787 1 
20126 1 149.97 28.6047 -13.3049 0.000268963 1 
20127 1 150.428 28.8158 -10.4689 0.00162509 1 
20128 1 147.88 29.5149 -11.5962 0.000518831 1 
20129 1 150.154 31.183 -12.0798 0.000367556 1 
20130 1 147.604 31.8841 -13.1973 0.00017193 1 
20131 1 148.062 32.0944 -10.3767 0.000695658 1 
20132 1 145.508 32.7997 -11.4952 0.000292708 1 
20133 1 147.786 34.465 -11.9721 0.000222277 1 
20134 1 145.233 35.1682 -13.0875 0.000141556 1 
20135 1 145.687 35.3823 -10.2737 0.000518645 1 
20136 1 143.133 36.087 -11.3821 0.000182793 1 
20137 1 145.416 37.7484 -11.8651 0.00022677 1 
20138 1 142.861 38.4528 -12.974 0.000126351 1 
20139 1 143.314 38.6667 -10.1631 0.00040069 1 
20140 1 140.76 39.3715 -11.2648 0.000382091 1 
20141 1 143.045 41.0324 -11.7554 0.000185472 1 
20142 1 140.488 41.7387 -12.858 0.000214239 1 
20143 1 140.945 41.95 -10.0535 0.00106995 1 
20144 1 86.5477 0.248248 -11.1484 0.000572642 1 
20145 1 83.9919 0.9574 -12.2385 0.000262162 1 
20146 1 84.4468 1.1727 -9.43937 0.00123228 1 
20147 1 81.8933 1.88064 -10.5192 0.000381011 1 
20148 1 84.1716 3.54597 -11.0234 0.0012633 1 
20149 1 81.6179 4.24944 -12.1061 0.000317007 1 
20150 1 82.0718 4.47173 -9.30576 0.00369005 1 
20151 1 79.5225 5.17196 -10.3819 0.000604555 1 
20152 1 81.801 6.83722 -10.8786 0.000461386 1 
20153 1 79.2475 7.5355 -11.966 8.94072e-05 1 
20154 1 79.7082 7.75745 -9.15046 0.00150944 1 
20155 1 77.1499 8.45522 -10.2468 0.00080997 1 
20156 1 79.4341 10.1176 -10.741 0.000422574 1 
20157 1 76.8743 10.8178 -11.8317 0.000421806 1 
20158 1 77.3371 11.0354 -9.03216 0.00318925 1 
20159 1 74.7727 11.7364 -10.1067 0.00100147 1 
20160 1 77.0583 13.4006 -10.6123 0.00126069 1 
20161 1 74.4965 14.1028 -11.6875 0.000595705 1 
20162 1 74.953 14.3222 -8.89296 0.00263471 1 
20163 1 72.3937 15.0241 -9.9466 0.00158578 1 
20164 1 74.6751 16.6882 -10.4635 0.00131935 1 
20165 1 72.1221 17.3871 -11.5263 0.000915177 1 
20166 1 72.5702 17.6116 -8.71126 0.00523509 1 
20167 1 70.0281 18.3022 -9.7628 0.00358079 1 
20168 1 72.3039 19.9681 -10.2931 0.00130299 1 
20169 1 69.7615 20.6607 -11.3657 0.000655769 1 
20170 1 70.2157 20.8741 -8.52821 0.00441785 1 
20171 1 157.693 21.5673 -9.62277 0.00683413 1 
20172 1 159.957 23.2405 -10.1338 0.000777861 1 
20173 1 157.415 23.9369 -11.2207 0.000817603 1 
20174 1 157.862 24.1505 -8.38505 0.0124109 1 
20175 1 155.319 24.8552 -9.48986 0.00461975 1 
20176 1 157.597 26.5175 -9.98175 0.00112313 1 
20177 1 155.055 27.2143 -11.0821 0.000434624 1 
20178 1 155.507 27.4342 -8.23846 0.00642209 1 
20179 1 152.968 28.1236 -9.34805 0.00247325 1 
20180 1 155.241 29.7906 -9.8512 0.000765256 1 
20181 1 152.7 30.4862 -10.9604 0.000743327 1 
20182 1 153.156 30.6924 -8.11981 0.00734553 1 
20183 1 150.611 31.391 -9.25319 0.0028379 1 
20184 1 152.881 33.0666 -9.73014 0.00130193 1 
20185 1 150.335 33.7648 -10.852 0.000383438 1 
20186 1 150.785 33.9814 -8.028 0.00300314 1 
20187 1 148.24 34.6786 -9.14957 0.000934803 1 
20188 1 150.515 36.3481 -9.61385 0.00174851 1 
20189 1 147.968 37.0454 -10.7445 0.00044481 1 
20190 1 148.418 37.2602 -7.91621 0.00226769 1 
20191 1 145.868 37.964 -9.05003 0.000976835 1 
20192 1 148.151 39.623 -9.5172 0.00105761 1 
20193 1 145.599 40.3276 -10.6436 0.000334299 1 
20194 1 146.05 40.5421 -7.8258 0.00136182 1 
20195 1 143.5 41.2449 -8.94349 0.000882403 1 
20196 1 87.0035 0.456602 -8.34908 0.00393774 1 
20197 1 89.2891 2.12444 -8.84697 0.00287105 1 
20198 1 86.7287 2.83535 -9.9399 0.00233855 1 
20199 1 87.1889 3.04359 -7.16622 0.0226031 1 
20200 1 84.6257 3.76777 -8.23805 0.0125791 1 
20201 1 86.9028 5.43179 -8.70805 0.00471672 1 
20202 1 84.3529 6.13863 -9.78629 0.00240833 1 
20203 1 84.8055 6.37205 -6.95624 0.0410297 1 
20204 1 82.2558 7.06568 -8.06666 0.00563647 1 
20205 1 84.5364 8.72058 -8.54571 0.00178647 1 
20206 1 81.9886 9.42002 -9.64254 0.00117186 1 
20207 1 82.4522 9.6424 -6.80659 0.0119384 1 
20208 1 79.9023 10.3356 -7.92612 0.00524391 1 
20209 1 82.1723 11.9992 -8.41778 0.00157989 1 
20210 1 79.6225 12.6993 -9.50951 0.00373699 1 
20211 1 80.0941 12.919 -6.66977 0.0607592 1 