ITEM: TIMESTEP
0
ITEM: NUMBER OF ATOMS
6984
ITEM: BOX BOUNDS xy xz yz pp pp ss
-7.2185429161000002e+01 9.2708737451999994e+01 -7.2185429161000002e+01
0.0000000000000000e+00 4.2151261153000000e+01 0.0000000000000000e+00
-8.2531765267615015e+01 8.2226592954009874e+01 0.0000000000000000e+00
ITEM: ATOMS id type x y z c_csym c_cna 
1 1 91.0572 0.831953 -2.86489 0.0806557 1 
2 1 89.7007 0.244598 -0.525602 4.8552 5 
3 1 18.4963 41.9458 -6.72498 0.00769865 1 
4 1 -0.615751 0.482904 -9.17535 0.00384237 1 
5 1 -0.538009 7.38277 -0.434192 3.7318 5 
6 1 -0.908068 6.31792 -4.34029 0.0472917 1 
7 1 -2.31561 5.6964 -2.00538 0.146958 1 
8 1 -1.29601 3.59357 -3.62861 0.0590099 1 
9 1 -2.74083 2.96883 -1.28998 0.143926 1 
10 1 -4.14301 3.95815 -3.49811 0.0299125 1 
11 1 -5.63986 3.30805 -1.13466 0.186089 1 
12 1 88.1767 1.17024 -2.65019 0.160376 1 
13 1 86.7627 0.290741 -0.162955 6.37898 5 
14 1 85.3792 1.50694 -2.4817 0.116174 1 
16 1 -1.29826 5.31462 -8.2662 0.00307102 1 
17 1 -2.71083 4.63107 -5.87264 0.0103583 1 
18 1 -1.66765 2.55303 -7.50937 0.00503799 1 
19 1 -3.08532 1.865 -5.08475 0.0145589 1 
20 1 -4.48458 2.93378 -7.34955 0.00509084 1 
21 1 86.8037 2.22537 -4.93253 0.0215127 1 
22 1 87.8728 0.164586 -6.55244 0.0126432 1 
23 1 85.0703 0.558055 -6.42673 0.0116593 1 
24 1 11.4715 42.019 -4.02748 0.0177264 1 
25 1 -1.65488 4.31477 -12.1681 0.000573568 1 
26 1 -3.07063 3.62866 -9.76051 0.00165296 1 
27 1 -2.01507 1.55924 -11.4219 0.00121009 1 
28 1 89.2803 0.868643 -8.99533 0.00347487 1 
29 1 87.8758 1.95474 -11.2607 0.000994131 1 
30 1 86.4694 1.26048 -8.84577 0.00306704 1 
31 1 -0.595589 2.24194 -13.8334 0.000375542 1 
33 1 -3.42026 2.64051 -13.6708 0.000324517 1 
35 1 16.749 42.0409 -12.9259 0.000573127 1 
37 1 86.1137 0.28988 -12.7707 0.000526237 1 
52 1 -3.21794 10.5198 -1.17909 6.05713 5 
53 1 -1.66002 11.1389 -3.43166 0.0556655 1 
54 1 -0.575236 9.06488 -5.08018 0.0103652 1 
55 1 -2.02054 8.41662 -2.71009 0.0756062 1 
56 1 -3.41413 9.4636 -4.98653 0.0230977 1 
57 1 -4.8993 8.78305 -2.69399 0.0641544 1 
58 1 -3.76543 6.71061 -4.25798 0.028697 1 
59 1 -5.24133 6.05702 -1.951 0.0657581 1 
60 1 -6.64293 7.09386 -4.13991 0.0134019 1 
61 1 -8.1145 6.38004 -1.80231 0.206807 1 
62 1 -6.99162 4.31037 -3.36829 0.0338562 1 
63 1 84.2745 3.6401 -0.95853 0.250501 1 
64 1 82.8944 4.67184 -3.21153 0.0513044 1 
17348 1 9.16404 35.9224 -0.348236 9.53934 5 
66 1 82.5735 1.90184 -2.40707 0.10323 1 
67 1 79.7734 2.35657 -2.29405 5.04911 5 
68 1 76.6601 0.164697 -1.49154 6.22168 5 
69 1 -0.569652 10.8142 -9.70885 0.00175994 1 
70 1 -1.9881 10.1397 -7.33318 0.00423679 1 
71 1 -0.931596 8.06782 -8.99222 0.00153443 1 
72 1 -2.34206 7.38411 -6.60828 0.00679015 1 
73 1 -3.76584 8.46548 -8.84735 0.00143015 1 
74 1 -5.19192 7.78437 -6.48179 0.00456321 1 
75 1 -4.12479 5.70335 -8.11443 0.00246863 1 
76 1 -5.54755 5.01066 -5.73534 0.00820847 1 
77 1 -6.95765 6.1034 -7.97065 0.0019324 1 
78 1 -8.38436 5.40411 -5.59716 0.00782745 1 
79 1 85.405 3.32733 -7.21202 0.00407551 1 
80 1 83.9929 2.6186 -4.81038 0.0163734 1 
81 1 82.5822 3.7376 -7.08617 0.00426219 1 
82 1 81.1765 3.03875 -4.71043 0.0180444 1 
83 1 82.2468 0.97907 -6.33197 0.0076107 1 
84 1 80.8424 0.305718 -3.96281 0.041686 1 
85 1 79.4022 1.41839 -6.20442 0.00867844 1 
86 1 78.0079 0.780114 -3.82808 0.066325 1 
87 1 -0.933098 9.81659 -13.6273 0.000194099 1 
88 1 -2.34815 9.14223 -11.2329 0.000474844 1 
89 1 -1.29321 7.06822 -12.9016 0.000291948 1 
90 1 -2.70902 6.38883 -10.505 0.000782566 1 
91 1 -4.12078 7.46724 -12.7465 0.000228725 1 
92 1 -5.5373 6.7875 -10.3547 0.00059363 1 
93 1 -4.47831 4.71178 -12.0091 0.000451114 1 
94 1 -5.89149 4.02438 -9.60906 0.00133578 1 
95 1 -7.30411 5.11384 -11.8594 0.000411522 1 
96 1 83.9918 4.42927 -9.46856 0.00125916 1 
97 1 85.055 2.35618 -11.1127 0.000940794 1 
98 1 83.6507 1.66613 -8.71427 0.0030728 1 
99 1 82.2259 2.76732 -10.9692 0.000763482 1 
100 1 80.814 2.08911 -8.58268 0.00186132 1 
101 1 81.8808 0.0157887 -10.2255 0.00132906 1 
102 1 79.0404 0.438314 -10.0828 0.000942624 1 
103 1 5.42993 41.9258 -7.6911 0.00482323 1 
107 1 -3.06319 5.39308 -14.41 0.000153287 1 
109 1 -5.88997 5.79455 -14.2555 0.000136975 1 
111 1 86.4647 3.04144 -13.5154 0.00029488 1 
113 1 83.6376 3.4471 -13.365 0.000257559 1 
115 1 83.2888 0.696 -12.623 0.000477724 1 
116 1 81.8703 1.78413 -14.8749 0.000132164 1 
117 1 80.4572 1.10938 -12.4764 0.000346334 1 
201 1 -0.634616 17.5383 -0.952422 6.8298 5 
203 1 -2.44411 15.9647 -2.49444 6.1012 5 
204 1 -2.85334 13.2725 -1.79415 6.69203 5 
205 1 -5.57463 13.5724 -1.67945 10.8711 5 
206 1 -6.02378 10.8759 -1.12817 7.05953 5 
207 1 -7.76364 9.16349 -2.53407 6.71034 5 
208 1 -0.935877 16.5827 -4.83934 0.0184582 1 
209 1 -1.30648 13.8573 -4.12877 0.0269736 1 
210 1 -2.71216 14.9557 -6.37942 0.00891311 1 
211 1 -4.17671 14.3126 -4.02942 0.0840435 1 
212 1 -3.06236 12.2223 -5.68723 0.0173052 1 
213 1 -4.51335 11.5449 -3.40173 0.139301 1 
214 1 -5.93898 12.6521 -5.53297 0.0474513 1 
215 1 -7.40227 11.9511 -3.1954 4.93787 5 
216 1 -6.287 9.87662 -4.85904 0.0200986 1 
12786 1 -53.5155 41.1604 -0.38345 7.17073 5 
218 1 -9.14735 10.2734 -4.62451 0.165684 1 
219 1 -10.7205 9.48216 -2.26382 6.78 5 
220 1 -9.48557 7.47581 -3.96337 0.0685514 1 
221 1 -10.9972 6.66876 -1.65876 6.10009 5 
222 1 -12.2901 7.89798 -3.85188 5.0336 5 
223 1 -13.4921 8.90939 -1.37163 8.3206 5 
224 1 80.0701 5.09566 -3.09493 5.16317 5 
225 1 78.9189 6.24852 -0.636787 8.77944 5 
226 1 77.3588 5.6534 -2.97337 5.35447 5 
227 1 76.2628 5.04009 -0.568042 7.41028 2 
228 1 77.0519 2.91172 -2.21845 5.47248 5 
229 1 74.1741 3.42625 -1.76988 1.44352 5 
230 1 73.8009 0.791584 -0.934563 3.71851 5 
231 1 70.9281 0.445107 -1.08777 4.76178 5 
232 1 -1.27296 15.6152 -8.75508 0.00262915 1 
233 1 -1.63071 12.8827 -8.04127 0.00313217 1 
234 1 -3.051 13.9608 -10.2868 0.000940849 1 
235 1 -4.4853 13.3001 -7.90565 0.00505112 1 
236 1 -3.40919 11.2184 -9.56926 0.00113928 1 
237 1 -4.83933 10.5538 -7.19781 0.00526062 1 
238 1 -6.24922 11.6236 -9.42492 0.00100421 1 
239 1 -7.68657 10.9539 -7.03822 0.0106414 1 
240 1 -6.60408 8.8695 -8.70388 0.00142218 1 
241 1 -8.04144 8.19313 -6.32819 0.0129273 1 
242 1 -9.43358 9.27473 -8.56144 0.0024793 1 
243 1 -10.8511 8.60229 -6.18618 0.0248215 1 
244 1 -9.78632 6.51091 -7.8318 0.00305152 1 
245 1 81.5097 5.81119 -5.46179 0.0121009 1 
246 1 80.0915 6.938 -7.67726 0.00655878 1 
247 1 78.6909 6.27498 -5.31845 0.0488851 1 
248 1 79.7465 4.17059 -6.94393 0.00673617 1 
249 1 78.3581 3.50708 -4.57162 0.0618994 1 
250 1 76.9014 4.61636 -6.74734 0.0158031 1 
251 1 75.5069 3.97447 -4.31516 0.146027 1 
252 1 76.5526 1.86512 -6.01181 0.0213918 1 
253 1 75.1396 1.25274 -3.56447 0.321806 1 
254 1 73.7379 2.2529 -5.81692 0.0473691 1 
255 1 72.3745 1.40718 -3.36755 0.802953 1 
256 1 -1.62747 42.0313 -4.88823 0.872312 5 
257 1 -1.63198 14.6297 -12.6779 0.000388862 1 
258 1 -0.575287 12.5605 -14.3511 0.000159484 1 
259 1 -1.98911 11.8886 -11.9553 0.000471791 1 
260 1 -3.4052 12.9644 -14.2025 0.000131065 1 
261 1 -4.82319 12.2931 -11.811 0.000244799 1 
262 1 -3.76266 10.218 -13.476 0.000153565 1 
263 1 -5.18054 9.54394 -11.0859 0.00034231 1 
264 1 -6.59364 10.6217 -13.3286 0.000121242 1 
265 1 -8.01297 9.94855 -10.9417 0.000356432 1 
266 1 -6.95004 7.86986 -12.5973 0.000198334 1 
267 1 -8.36752 7.19183 -10.2105 0.000556412 1 
268 1 -9.78252 8.27645 -12.4482 0.000186661 1 
269 1 -11.2017 7.60383 -10.0608 0.000790317 1 
270 1 82.5735 5.52247 -11.7112 0.000355002 1 
271 1 81.1578 4.84634 -9.32337 0.0013777 1 
272 1 79.7378 5.93676 -11.5547 0.000544441 1 
273 1 78.3177 5.27245 -9.15535 0.00286231 1 
274 1 79.3887 3.18682 -10.8177 0.000804437 1 
275 1 77.969 2.52086 -8.42125 0.00345859 1 
276 1 76.5549 3.60554 -10.6536 0.0011216 1 
277 1 75.1395 2.94084 -8.24039 0.00319916 1 
278 1 76.2052 0.860338 -9.9267 0.00107383 1 
279 1 74.7854 0.194953 -7.52256 0.00507605 1 
280 1 73.3811 1.27513 -9.76404 0.00322691 1 
281 1 71.9652 0.599557 -7.34347 0.0256739 1 
289 1 -5.53382 8.54613 -14.99 7.72596e-05 1 
291 1 -8.36452 8.95066 -14.8395 6.64843e-05 1 
293 1 -8.7193 6.19946 -14.1042 0.000120586 1 
295 1 81.157 6.60788 -13.9512 0.000129104 1 
297 1 80.8058 3.85811 -13.2139 0.000231886 1 
299 1 77.9731 4.27149 -13.058 0.000326838 1 
300 1 79.0399 2.19516 -14.7243 0.000112468 1 
301 1 77.6239 1.52589 -12.3259 0.000344847 1 
302 1 76.2104 2.60656 -14.5727 0.000144376 1 
303 1 74.7955 1.94011 -12.1712 0.000622778 1 
304 1 3.67472 42.0135 -13.8454 0.000153431 1 
305 1 73.0328 0.272814 -13.6997 0.000308162 1 
506 1 -1.60465 21.3813 -3.96281 0.041686 1 
507 1 -3.05471 20.7534 -1.59234 7.43529 5 
508 1 -1.98133 18.6732 -3.24883 0.108241 1 
509 1 -3.52611 18.1396 -1.0198 10.2434 5 
510 1 -4.88057 19.1356 -3.14916 0.178025 1 
511 1 -6.25267 18.436 -0.817193 6.75577 5 
512 1 -5.32073 16.3132 -2.32458 2.66186 5 
513 1 -7.24001 15.208 -0.31084 5.67341 5 
514 1 -8.1504 12.5211 -0.488778 10.5566 5 
515 1 -9.68127 14.6685 -1.09513 5.18099 5 
217 1 -6.37922 8.14673 -0.329732 5.03546 5 
1004 1 -16.7516 12.6017 -0.518958 2.0311 5 
518 1 -0.5504 19.3141 -5.58462 0.0108571 1 
519 1 -1.98062 20.4176 -7.8425 0.00312602 1 
520 1 -3.40757 19.7636 -5.47379 0.0164374 1 
521 1 -2.34338 17.6806 -7.10122 0.00605342 1 
522 1 -3.80655 17.035 -4.72342 0.0323263 1 
523 1 -5.19939 18.1063 -6.94961 0.0111524 1 
524 1 -6.66969 17.4583 -4.52182 0.150778 1 
525 1 -5.58595 15.3741 -6.20779 0.0388615 1 
526 1 -7.09345 14.7357 -3.74225 4.4884 5 
527 1 -8.38279 15.7707 -6.10067 0.0532559 1 
528 1 -9.89466 15.0447 -3.78879 3.27934 5 
529 1 -8.77927 13.0214 -5.33138 0.109089 1 
530 1 -10.1815 12.2948 -2.70417 10.2924 5 
531 1 -11.5982 13.401 -5.18062 3.80732 5 
532 1 -12.2039 14.0935 -1.83774 5.73587 5 
533 1 -11.894 10.717 -4.48075 4.43861 5 
534 1 -12.8538 11.5129 -1.73618 9.35414 5 
535 1 -14.5871 11.197 -4.35487 5.74175 5 
536 1 -15.7203 10.5294 -2.00147 7.60391 2 
537 1 77.6896 8.41059 -3.70309 5.27652 5 
538 1 76.5686 7.77468 -1.30488 7.6539 2 
539 1 74.8335 8.88233 -3.27449 0.584651 1 
540 1 73.4375 8.34647 -0.763791 3.28285 5 
541 1 74.5071 6.12684 -2.5551 0.74072 1 
542 1 71.7283 6.22923 -2.47807 1.39796 1 
544 1 71.3846 3.34859 -1.76351 2.65625 5 
545 1 68.2817 3.7867 -1.32734 2.96253 5 
546 1 67.9033 0.864385 -0.582307 6.07804 5 
547 1 65.2741 1.7024 -1.04895 4.14719 5 
548 1 -0.566248 21.0914 -10.2255 0.00132906 1 
549 1 -0.915629 18.3483 -9.48432 0.00212635 1 
550 1 -2.33923 19.4391 -11.7405 0.000487699 1 
551 1 -3.76056 18.769 -9.34724 0.00154161 1 
552 1 -2.69345 16.6982 -11.0088 0.000663418 1 
553 1 -4.12426 16.0314 -8.61483 0.00380187 1 
554 1 -5.52704 17.1113 -10.8707 0.000411162 1 
555 1 -6.95085 16.4427 -8.48226 0.00367872 1 
556 1 -5.88958 14.3678 -10.145 0.000702708 1 
557 1 -7.32953 13.6978 -7.75043 0.00611425 1 
558 1 -8.71888 14.7731 -10.0051 0.00175552 1 
559 1 -10.151 14.0928 -7.6089 0.0271524 1 
560 1 -9.07913 12.0278 -9.28208 0.00175516 1 
561 1 -10.4924 11.3533 -6.89362 0.020642 1 
562 1 -11.9081 12.4389 -9.13726 0.0046418 1 
563 1 -13.3057 11.7883 -6.75937 0.075031 1 
564 1 -12.2627 9.69224 -8.40706 0.00425303 1 
565 1 -13.6603 9.06064 -6.02766 0.0615022 1 
566 1 -15.1023 10.1117 -8.22121 0.00790062 1 
567 1 76.2038 9.48905 -5.77966 0.0950239 1 
568 1 77.2513 7.37353 -7.48207 0.0129586 1 
569 1 75.8421 6.73533 -5.05367 0.0986369 1 
570 1 74.4309 7.77186 -7.26859 0.00839754 1 
571 1 73.0585 7.08966 -4.8188 0.0821929 1 
572 1 74.0846 5.0182 -6.5393 0.0174708 1 
573 1 72.7329 4.25343 -4.10995 0.244812 1 
574 1 71.2699 5.39273 -6.30616 0.0870335 1 
575 1 69.8471 4.60233 -3.82681 0.55199 1 
576 1 70.9213 2.62841 -5.59677 0.126155 1 
577 1 69.4537 1.77299 -3.10368 1.19469 5 
578 1 68.145 3.07732 -5.5569 0.196524 1 
579 1 66.7371 2.3807 -3.25201 1.04036 1 
580 1 67.7891 0.348423 -4.90264 1.47487 5 
581 1 64.8882 0.717181 -4.73804 0.0778044 1 
582 1 63.39 0.0822206 -2.34488 0.631044 5 
583 1 -0.926577 20.1131 -14.1385 0.000231431 1 
584 1 -1.27778 17.3699 -13.4052 0.000305386 1 
586 1 -4.10907 17.7807 -13.2624 0.000156177 1 
587 1 -3.04919 15.7083 -14.9293 0.00010592 1 
588 1 -4.46517 15.0373 -12.5354 0.000187872 1 
589 1 -5.87953 16.1158 -14.7842 7.58263e-05 1 
590 1 -7.29669 15.4452 -12.3937 0.000175253 1 
591 1 -6.23634 13.3698 -14.0567 9.36481e-05 1 
592 1 -7.65592 12.6985 -11.668 0.000219943 1 
593 1 -9.06846 13.7758 -13.9109 0.000118173 1 
594 1 -10.4887 13.1051 -11.5233 0.000487934 1 
595 1 -9.4265 11.0273 -13.1808 0.000124281 1 
596 1 -10.8467 10.3566 -10.7929 0.000523375 1 
597 1 -12.2616 11.4342 -13.0269 0.000166671 1 
598 1 -13.684 10.7674 -10.6298 0.000932433 1 
599 1 -12.6179 8.68626 -12.2916 0.000308721 1 
600 1 78.6697 8.02153 -9.8926 0.00168767 1 
601 1 -15.4517 9.09392 -12.1247 0.000675849 1 
602 1 75.838 8.42955 -9.70722 0.00235312 1 
603 1 76.9046 6.35013 -11.3869 0.000945355 1 
604 1 75.4879 5.68798 -8.96961 0.0028758 1 
605 1 74.0796 6.75518 -11.2127 0.00232336 1 
606 1 72.6701 6.08373 -8.77464 0.0115613 1 
607 1 73.7312 4.01548 -10.4827 0.00271869 1 
608 1 72.3222 3.34148 -8.05084 0.0161434 1 
609 1 70.9226 4.42146 -10.3325 0.00235614 1 
610 1 69.5335 3.75312 -7.92586 0.0181025 1 
611 1 70.5724 1.6861 -9.62653 0.00564408 1 
612 1 69.1808 1.02541 -7.24597 0.0540697 1 
613 1 67.748 2.08612 -9.4918 0.00237217 1 
614 1 66.337 1.4043 -7.10954 0.00835904 1 
628 1 -11.1975 9.35714 -14.6869 7.07425e-05 1 
630 1 -14.0307 9.76358 -14.5295 0.00016135 1 
632 1 78.3242 7.01743 -13.7931 0.000253056 1 
634 1 75.4951 7.42427 -13.6309 0.000536925 1 
636 1 75.1449 4.68225 -12.8979 0.000616312 1 
638 1 72.3247 5.08898 -12.7434 0.000560938 1 
639 1 73.3844 3.01579 -14.4225 0.000198823 1 
640 1 71.9751 2.34992 -12.0228 0.000863356 1 
641 1 70.5596 3.42228 -14.2753 0.000271718 1 
642 1 69.153 2.75491 -11.8804 0.00084888 1 
643 1 70.2053 0.68013 -13.555 0.00044322 1 
644 1 68.7925 0.0153724 -11.1696 0.00151228 1 
645 1 67.3754 1.08259 -13.4097 0.000428878 1 
646 1 65.9601 0.410379 -11.0237 0.00118715 1 
983 1 -0.735587 27.7444 -1.65876 6.10009 5 
8712 1 29.6028 12.6017 -0.518958 2.0311 5 
985 1 -3.5282 27.3241 -0.636787 8.77944 5 
986 1 -0.937375 26.8868 -5.46179 0.0121009 1 
987 1 -2.37698 26.1713 -3.09493 5.16317 5 
988 1 -1.27061 24.1144 -4.71043 0.0180444 1 
989 1 -2.67366 23.4322 -2.29405 5.04911 5 
990 1 -4.08898 24.5827 -4.57162 0.0618994 1 
991 1 -5.39523 23.9873 -2.21845 5.47248 5 
992 1 -4.4392 21.8557 -3.82808 0.066325 1 
993 1 -5.78697 21.2403 -1.49154 6.22168 5 
994 1 -7.30749 22.3284 -3.56447 0.321806 1 
995 1 -8.64614 21.8672 -0.934563 3.71851 5 
996 1 -7.73414 19.6345 -2.83355 0.989156 1 
997 1 -8.30204 16.9546 -2.11777 4.62208 5 
998 1 -10.4637 19.6134 -2.62175 2.65309 5 
6037 1 39.9752 8.14673 -0.329732 5.03546 5 
1000 1 -11.1375 16.8649 -2.13799 8.45446 5 
1001 1 -16.2014 18.0407 -1.87961 7.53375 2 
1002 1 -13.81 16.7169 -1.0807 6.81875 5 
1003 1 -16.4933 15.3094 -1.17878 6.32604 5 
1005 1 -1.28932 25.922 -9.32337 0.0013777 1 
1006 1 -2.70054 25.2462 -6.94393 0.00673617 1 
1007 1 -1.6331 23.1647 -8.58268 0.00186132 1 
1008 1 -3.04493 22.494 -6.20442 0.00867844 1 
1009 1 -4.47809 23.5965 -8.42125 0.00345859 1 
1010 1 -5.89447 22.9408 -6.01181 0.0213918 1 
1011 1 -4.83172 20.8502 -7.6911 0.00482323 1 
1012 1 -6.2724 20.2063 -5.28942 0.0496292 1 
1013 1 -7.66164 21.2706 -7.52256 0.00507606 1 
1014 1 -9.07393 20.5714 -5.11484 0.15955 1 
1015 1 -8.01472 18.5217 -6.81418 0.0127034 1 
1016 1 -9.4652 17.8212 -4.46318 0.409978 1 
1017 1 -10.8334 18.9449 -6.69292 0.0292625 1 
1018 1 -12.2791 18.2828 -4.33747 2.95869 5 
1019 1 -11.1918 16.2044 -6.04925 0.186419 1 
1020 1 -12.7732 15.5972 -3.87117 10.5658 5 
1021 1 -14.0742 16.6721 -5.94565 0.245714 1 
1022 1 -15.4311 15.9873 -3.55378 6.57213 5 
1023 1 -14.4113 13.8767 -5.19913 5.74468 5 
1024 1 -15.0726 13.3063 -2.62434 10.5204 5 
1025 1 -17.2257 14.2632 -4.82204 0.696199 5 
1026 1 -18.5903 13.7094 -2.32541 6.07861 5 
1027 1 -17.4569 11.6091 -3.98333 0.79813 5 
1028 1 73.7358 11.0537 -1.511 2.14651 5 
1029 1 -20.3483 11.8888 -3.89538 0.153464 1 
1030 1 70.8384 11.2552 -1.5018 5.84508 5 
1031 1 72.0119 9.15788 -3.12237 0.413301 1 
1032 1 70.6418 8.13756 -0.927408 5.34513 5 
1033 1 69.0706 9.47201 -2.80597 1.04464 5 
1034 1 67.2335 8.62086 -0.379716 6.41609 2 
1035 1 68.6491 6.61724 -2.07408 6.08689 5 
1036 1 65.8525 7.12089 -2.21278 6.58025 5 
1037 1 65.5777 4.41509 -1.71587 7.55658 5 
1038 1 62.7004 4.88551 -1.61897 6.50559 5 
1039 1 62.2045 2.19035 -0.799476 1.43635 5 
1040 1 59.4497 2.5116 -0.800933 5.67415 5 
1041 1 -1.64124 24.9337 -13.2139 0.000231886 1 
1042 1 -3.05841 24.2625 -10.8177 0.000804437 1 
1043 1 -1.98985 22.185 -12.4764 0.000346334 1 
1044 1 -3.40668 21.5139 -10.0828 0.000942624 1 
1045 1 -4.82323 22.6015 -12.3259 0.000344847 1 
1046 1 -6.24188 21.936 -9.9267 0.00107383 1 
1047 1 -5.17302 19.8561 -11.5971 0.000303024 1 
1048 1 -6.59287 19.1899 -9.20433 0.00101286 1 
1049 1 -8.0014 20.2723 -11.4521 0.000687746 1 
1050 1 -9.41541 19.6099 -9.06417 0.00415169 1 
1051 1 -8.35485 17.5248 -10.7347 0.0012547 1 
1052 1 -9.77 16.8587 -8.36678 0.0138082 1 
1053 1 -11.1842 17.9389 -10.6022 0.00332193 1 
1054 1 -12.6079 17.2888 -8.24982 0.0256842 1 
1055 1 -11.5473 15.1853 -9.87221 0.00413913 1 
1056 1 -12.9653 14.5352 -7.49949 0.0472173 1 
1057 1 -14.392 15.5945 -9.71972 0.00295266 1 
1058 1 -15.8399 14.93 -7.32775 0.0460818 1 
1059 1 -14.7513 12.8489 -8.96438 0.00596879 1 
1060 1 -16.1786 12.1832 -6.53843 0.119694 1 
1061 1 -17.5874 13.2364 -8.78344 0.00539644 1 
1062 1 -18.9814 12.5664 -6.32224 0.0318986 1 
1063 1 -17.9328 10.5025 -8.01746 0.00830537 1 
1064 1 73.4112 9.85203 -5.54176 0.0415319 1 
1065 1 71.9601 10.8758 -7.8161 0.0180314 1 
1066 1 70.552 10.1761 -5.34888 0.0860955 1 
1067 1 71.6186 8.14094 -7.04745 0.039631 1 
1068 1 70.1962 7.42628 -4.55049 0.329525 1 
1069 1 68.8247 8.53396 -6.93501 0.0168907 1 
1070 1 67.406 7.847 -4.52634 0.115514 1 
1071 1 68.4937 5.8104 -6.22621 0.0697486 1 
1072 1 67.0841 5.11998 -3.90563 0.472824 1 
1073 1 65.6579 6.1996 -6.16896 0.0203876 1 
1074 1 64.1985 5.52155 -3.87764 0.0765749 1 
1075 1 65.2863 3.45511 -5.46569 0.0187632 1 
1076 1 63.7861 2.7728 -3.15421 0.0891286 1 
1077 1 62.4232 3.85906 -5.39823 0.0162588 1 
1078 1 60.9427 3.17383 -3.09994 0.0857856 1 
1079 1 62.0319 1.10247 -4.6457 0.0197312 1 
1080 1 60.5334 0.432322 -2.28867 0.499467 1 
1081 1 59.1769 1.50749 -4.52123 0.0239571 1 
1082 1 57.646 0.871956 -2.18446 0.481732 1 
1083 1 -0.576744 22.8598 -14.8749 0.000132164 1 
1085 1 -3.40717 23.2708 -14.7243 0.000112468 1 
1087 1 -3.75713 20.5252 -13.992 0.00013602 1 
1089 1 -6.58694 20.9378 -13.8454 0.000153431 1 
1091 1 -6.93936 18.1922 -13.1202 0.000197429 1 
1093 1 -9.76862 18.6027 -12.9789 0.000517067 1 
1094 1 -8.71029 16.5234 -14.6397 0.000114237 1 
1095 1 -10.1274 15.8534 -12.2529 0.000478091 1 
1096 1 -11.5427 16.9298 -14.4931 0.00013463 1 
1097 1 -12.9632 16.2605 -12.1059 0.000483252 1 
1098 1 -11.9027 14.1816 -13.761 0.000128593 1 
1099 1 -13.3261 13.5121 -11.3679 0.000671518 1 
1100 1 -14.7373 14.5846 -13.6052 0.000235991 1 
1101 1 -16.1619 13.9108 -11.2025 0.00102158 1 
1102 1 -15.0962 11.8381 -12.865 0.000396201 1 
1103 1 -16.518 11.1683 -10.4525 0.0015338 1 
1104 1 -17.9259 12.2364 -12.699 0.000962786 1 
1105 1 -19.3431 11.5583 -10.2723 0.00402366 1 
1106 1 74.4297 9.49444 -11.9527 0.00166459 1 
1107 1 73.017 8.82093 -9.51584 0.00749416 1 
1108 1 71.6138 9.89314 -11.794 0.00115622 1 
1109 1 70.2157 9.21532 -9.36572 0.00351266 1 
1110 1 71.2685 7.15645 -11.0561 0.00146988 1 
1111 1 69.8773 6.48471 -8.63203 0.00708708 1 
1112 1 68.455 7.55704 -10.9193 0.00170193 1 
1113 1 67.0631 6.87973 -8.52458 0.0064856 1 
1114 1 68.1072 4.82169 -10.1997 0.00202741 1 
1115 1 66.7089 4.14347 -7.81736 0.00584873 1 
1116 1 65.2775 5.22187 -10.0804 0.00256184 1 
1117 1 63.8647 4.54286 -7.72279 0.00656551 1 
1118 1 64.9153 2.47635 -9.36202 0.00244365 1 
1119 1 63.4903 1.78976 -6.99717 0.00647245 1 
1120 1 62.0727 2.87579 -9.2364 0.00153426 1 
1121 1 60.6375 2.19212 -6.87831 0.00310686 1 
1122 1 61.7053 0.116293 -8.49971 0.00239655 1 
1123 1 58.8682 0.516798 -8.37399 0.00202016 1 
1124 1 -14.7555 41.9702 -6.0101 0.00946246 1 
1146 1 -16.8611 10.1673 -14.3685 0.000381519 1 
1148 1 73.023 10.5692 -14.2111 0.000375155 1 
1150 1 72.6733 7.82813 -13.4736 0.000460073 1 
1152 1 69.8535 8.23135 -13.3255 0.000491682 1 
1154 1 69.5055 5.49294 -12.5983 0.000627386 1 
1155 1 68.0851 6.56813 -14.8553 0.000233993 1 
1156 1 66.6807 5.89607 -12.462 0.000784846 1 
1157 1 67.7328 3.82616 -14.1312 0.00030182 1 
1158 1 66.3252 3.15438 -11.7425 0.000852539 1 
1159 1 64.9021 4.2296 -13.989 0.000278534 1 
1160 1 63.491 3.55489 -11.6068 0.000744134 1 
1161 1 64.5438 1.48205 -13.264 0.000337189 1 
1162 1 63.1277 0.802974 -10.8795 0.000902919 1 
1163 1 61.7107 1.88386 -13.1203 0.000342763 1 
1164 1 60.2931 1.20324 -10.7424 0.000897309 1 
1202 1 -9.41804 41.9603 -14.7744 0.000159453 1 
1204 1 59.935 0.213019 -14.6267 0.000179811 1 
8642 1 -37.1903 35.9224 -0.348236 9.53934 5 
8663 1 -42.4719 29.2224 -0.329732 5.03546 5 
1632 1 -2.59213 32.5885 -1.73618 9.35414 5 
1633 1 -3.2304 29.985 -1.37163 8.3206 5 
1634 1 -5.87847 28.8503 -1.30488 7.6539 2 
1635 1 -6.18425 26.1157 -0.568042 7.41028 2 
1636 1 -1.63236 31.7926 -4.48075 4.43861 5 
1637 1 -0.589476 29.6779 -6.18618 0.0248215 1 
1638 1 -2.0284 28.9736 -3.85188 5.0336 5 
1639 1 -3.39865 30.1363 -6.02766 0.0615022 1 
1640 1 -4.75749 29.4862 -3.70309 5.27652 5 
1641 1 -3.75623 27.3506 -5.31845 0.0488851 1 
1642 1 -5.08828 26.729 -2.97337 5.35447 5 
1643 1 -6.60496 27.811 -5.05367 0.0986369 1 
1644 1 -7.94002 27.2025 -2.5551 0.74072 1 
1645 1 -6.94014 25.0501 -4.31516 0.146027 1 
1646 1 -8.27295 24.5019 -1.76988 1.44352 5 
1647 1 -9.71417 25.3291 -4.10995 0.244812 1 
1648 1 -11.0625 24.4242 -1.76351 2.65625 5 
1649 1 -10.0726 22.4828 -3.36755 0.802953 1 
1650 1 -11.519 21.5207 -1.08777 4.76178 5 
1651 1 -12.9934 22.8486 -3.10368 1.19469 5 
1652 1 -14.5438 21.94 -0.582307 6.07804 5 
1653 1 -13.447 19.5873 -1.95504 10.1823 5 
1655 1 -15.9995 20.7409 -2.61725 5.78546 5 
17369 1 3.88244 29.2224 -0.329732 5.03546 5 
1657 1 -19.4942 18.5488 -1.48804 1.74838 5 
1658 1 -19.8498 15.854 -0.725151 5.57633 5 
1659 1 -22.5859 15.9161 -0.847981 7.16435 5 
1660 1 -0.58509 31.4322 -10.7929 0.000523375 1 
1661 1 -2.001 30.7679 -8.40706 0.00425303 1 
1662 1 -0.940055 28.6795 -10.0608 0.000790317 1 
1663 1 -2.35562 28.0136 -7.67726 0.00655878 1 
1664 1 -3.77734 29.0972 -9.8926 0.00168767 1 
1665 1 -5.1958 28.4492 -7.48207 0.0129586 1 
1666 1 -4.12941 26.3481 -9.15535 0.00286231 1 
1667 1 -5.54571 25.692 -6.74734 0.0158031 1 
1668 1 -6.9592 26.7636 -8.96961 0.0028758 1 
1669 1 -8.36245 26.0938 -6.5393 0.0174708 1 
1670 1 -7.30757 24.0165 -8.24039 0.00319916 1 
1671 1 -8.7092 23.3285 -5.81692 0.0473691 1 
1672 1 -10.1249 24.4171 -8.05084 0.0161434 1 
1673 1 -11.5257 23.704 -5.59677 0.126155 1 
1674 1 -10.4819 21.6752 -7.34347 0.0256739 1 
1675 1 -11.8891 20.9557 -4.88823 0.872312 5 
1676 1 -13.2663 22.101 -7.24597 0.0540697 1 
1677 1 -14.658 21.4241 -4.90264 1.47487 5 
1678 1 -13.6455 19.3876 -6.58222 0.0919941 1 
1679 1 -15.0163 18.7119 -4.23912 5.29199 5 
1680 1 -16.5055 19.7451 -6.39825 0.0252324 1 
1681 1 -17.9213 19.0738 -3.9548 0.311959 1 
1682 1 -16.9066 17.0145 -5.6668 0.102868 1 
1683 1 -18.2841 16.4055 -3.12683 0.784358 1 
1684 1 -19.6984 17.381 -5.46759 0.0299759 1 
1685 1 -21.1312 16.7402 -3.10642 0.215126 1 
1686 1 -20.0407 14.6481 -4.67674 0.0528277 1 
1687 1 -21.4544 13.934 -2.35347 6.76174 5 
1688 1 -22.9104 14.9971 -4.52379 0.0674577 1 
1689 1 -24.3795 14.2379 -2.01871 4.34835 5 
1690 1 69.4537 12.2251 -3.70695 0.19533 1 
1691 1 67.8646 11.5965 -1.08534 5.98777 5 
1692 1 66.6764 12.5861 -3.65094 0.263446 1 
1693 1 65.0024 11.834 -1.35347 7.60723 5 
1694 1 66.3033 9.86748 -2.84879 0.577436 1 
1695 1 64.4417 9.01092 -0.561245 8.64977 5 
1696 1 63.4731 10.2501 -2.95219 3.62628 5 
8666 1 45.3614 24.9573 -0.808112 3.25414 5 
1698 1 63.0253 7.49994 -2.21142 6.7395 5 
1699 1 60.3087 8.04185 -2.25923 5.38987 5 
1700 1 59.8791 5.28484 -1.59272 6.70928 5 
1701 1 57.072 5.87817 -1.2091 2.42202 5 
1702 1 56.6291 3.09555 -0.535088 6.82447 5 
1704 1 -0.935819 30.4328 -14.6869 7.07425e-05 1 
1705 1 -2.35622 29.7619 -12.2916 0.000308721 1 
1706 1 -1.29009 27.6835 -13.9512 0.000129104 1 
1707 1 -2.70924 27.0124 -11.5547 0.000544441 1 
1708 1 -4.1229 28.0931 -13.7931 0.000253056 1 
1709 1 -5.54249 27.4258 -11.3869 0.000945355 1 
1710 1 -4.47395 25.3471 -13.058 0.000326838 1 
1711 1 -5.89223 24.6812 -10.6536 0.0011216 1 
1712 1 -7.30218 25.7579 -12.8979 0.000616312 1 
1713 1 -8.71588 25.0911 -10.4827 0.00271869 1 
1714 1 -7.6516 23.0157 -12.1712 0.000622778 1 
1715 1 -9.06597 22.3508 -9.76404 0.00322691 1 
1716 1 -10.472 23.4255 -12.0228 0.000863356 1 
1717 1 -11.8747 22.7617 -9.62653 0.00564408 1 
1718 1 -10.8256 20.6847 -11.3113 0.00158557 1 
1719 1 -12.2362 20.027 -8.93557 0.0105722 1 
1720 1 -13.6546 21.091 -11.1696 0.00151228 1 
1721 1 -15.0745 20.4273 -8.7898 0.00588816 1 
1722 1 -14.0233 18.3473 -10.4584 0.0039635 1 
1723 1 -15.4651 17.6899 -8.08652 0.0257167 1 
1724 1 -16.8605 18.7382 -10.298 0.00297947 1 
1725 1 -18.2906 18.0555 -7.89635 0.00782646 1 
1726 1 -17.2316 15.9841 -9.54927 0.00498084 1 
1727 1 -18.6458 15.2993 -7.10791 0.0135168 1 
1728 1 -20.0515 16.3658 -9.37527 0.0035949 1 
1729 1 -21.4684 15.6801 -6.94909 0.0102441 1 
1730 1 -20.403 13.6171 -8.59721 0.00635627 1 
1731 1 -21.8118 12.9307 -6.14569 0.0322011 1 
1732 1 -23.2145 14.0105 -8.46149 0.00429812 1 
1733 1 68.0874 13.3171 -6.05122 0.0122658 1 
1734 1 69.1581 11.2667 -7.6902 0.00651647 1 
1735 1 67.7545 10.5637 -5.25935 0.0478675 1 
1736 1 66.3443 11.6734 -7.59439 0.0110055 1 
1737 1 64.9435 10.9816 -5.239 0.0572509 1 
1738 1 66.0097 8.93377 -6.86958 0.0191557 1 
1739 1 64.5823 8.24728 -4.54126 0.0840205 1 
1740 1 63.1598 9.3715 -6.79491 0.0123494 1 
1741 1 61.7422 8.70746 -4.48842 0.112212 1 
1742 1 62.7995 6.61987 -6.10715 0.0177557 1 
1743 1 61.342 5.93967 -3.82758 0.094471 1 
1744 1 59.9336 7.06636 -5.97011 0.0198296 1 
1745 1 58.4604 6.42501 -3.64188 0.177377 1 
1746 1 59.5568 4.29002 -5.26901 0.0146743 1 
1747 1 58.0973 3.64253 -2.93081 0.181241 1 
1748 1 56.7322 4.69566 -5.13307 0.0544824 1 
1749 1 55.3394 3.87436 -2.83906 0.775059 5 
1750 1 56.373 1.88971 -4.44665 0.101186 1 
1751 1 54.9098 1.08062 -2.14787 2.0285 5 
1752 1 53.5375 2.32652 -4.32055 0.147055 1 
1753 1 51.9965 1.7013 -2.09147 8.28652 5 
1754 1 50.3092 0.0781686 -3.50242 6.11218 5 
1762 1 -6.23671 23.6822 -14.5727 0.000144376 1 
1764 1 -9.06273 24.0914 -14.4225 0.000198823 1 
1766 1 -9.41425 21.3484 -13.6997 0.000308162 1 
1768 1 -12.2418 21.7558 -13.555 0.00044322 1 
1770 1 -12.6006 19.0104 -12.8355 0.00077904 1 
1772 1 -15.4349 19.4114 -12.6857 0.000740472 1 
1773 1 -14.3765 17.3334 -14.3423 0.000161808 1 
1774 1 -15.8003 16.6603 -11.9498 0.000713466 1 
1775 1 -17.209 17.7331 -14.1887 0.000256189 1 
1776 1 -18.6314 17.0534 -11.7898 0.00113698 1 
1777 1 -17.569 14.983 -13.4462 0.000488501 1 
1778 1 -18.9908 14.3024 -11.0342 0.00213915 1 
1779 1 -20.3955 15.3812 -13.291 0.000525334 1 
1780 1 -21.8082 14.697 -10.8791 0.00158174 1 
1781 1 -20.7475 12.6343 -12.5413 0.00087736 1 
1782 1 70.556 11.9524 -10.1181 0.00251255 1 
1783 1 69.1408 13.0365 -12.3952 0.000830939 1 
1784 1 67.739 12.356 -9.98945 0.00236687 1 
1785 1 68.7979 10.2948 -11.6522 0.00123482 1 
1786 1 67.4039 9.61558 -9.24819 0.00456358 1 
1787 1 65.972 10.7039 -11.5221 0.00127489 1 
1788 1 64.5704 10.0343 -9.14229 0.00378497 1 
1789 1 65.6287 7.96377 -10.7975 0.00206942 1 
1790 1 64.2236 7.29208 -8.43321 0.0058131 1 
1791 1 62.7872 8.3804 -10.6736 0.00145645 1 
1792 1 61.3684 7.71779 -8.31593 0.00324973 1 
1793 1 62.4338 5.63125 -9.95867 0.00143622 1 
1794 1 61.0061 4.96005 -7.60656 0.00313128 1 
1795 1 59.5876 6.0481 -9.82454 0.00126849 1 
1796 1 58.1624 5.37767 -7.47235 0.00391365 1 
1797 1 59.2313 3.28535 -9.1095 0.00169836 1 
1798 1 57.8051 2.60211 -6.76348 0.0100979 1 
1799 1 56.3891 3.70246 -8.96776 0.00251277 1 
1800 1 54.966 3.02468 -6.62302 0.0162839 1 
1801 1 56.0297 0.929485 -8.2394 0.00193822 1 
1802 1 54.5942 0.234122 -5.88103 0.0156902 1 
1803 1 53.1883 1.35755 -8.09348 0.00462567 1 
1804 1 51.7689 0.703179 -5.74641 0.0587256 1 
1828 1 -19.3335 13.3135 -14.9524 0.000261523 1 
1830 1 -22.1593 13.7161 -14.8013 0.00026839 1 
1832 1 70.2006 10.972 -14.0609 0.000384403 1 
1834 1 67.3752 11.3782 -13.9175 0.000406623 1 
1836 1 67.0295 8.6367 -13.1862 0.000590806 1 
1838 1 64.1968 9.04732 -13.0502 0.000588919 1 
1839 1 65.2552 6.97449 -14.7131 0.000246854 1 
1840 1 63.8469 6.30307 -12.3286 0.00071372 1 
1841 1 62.4203 7.38395 -14.5702 0.000240207 1 
1842 1 61.0066 6.71564 -12.191 0.000574531 1 
1843 1 62.0675 4.63592 -13.847 0.000284931 1 
1844 1 60.6522 3.96224 -11.4715 0.000671953 1 
1845 1 59.2298 5.04596 -13.702 0.000292194 1 
1846 1 57.8111 4.37554 -11.3287 0.000792414 1 
1847 1 58.8746 2.29102 -12.9768 0.000338111 1 
1848 1 57.4545 1.61286 -10.6041 0.000708608 1 
1849 1 56.0362 2.70206 -12.8292 0.000389223 1 
1850 1 54.6139 2.02844 -10.4568 0.00101025 1 
1851 1 -16.5054 42.0953 -12.097 0.000516906 1 
1852 1 52.8379 0.357714 -11.9412 0.000655997 1 
1897 1 57.1 0.620828 -14.4788 0.000194076 1 
1899 1 54.2622 1.03072 -14.3265 0.000210695 1 
2448 1 -0.875851 37.9405 -2.13799 8.45446 5 
2449 1 0.580386 35.7442 -1.09513 5.18099 5 
2450 1 -2.51154 36.6728 -3.87117 10.5658 5 
2451 1 -3.54838 37.7926 -1.0807 6.81875 5 
2452 1 -1.94224 35.1692 -1.83774 5.73587 5 
14167 1 17.7858 23.9291 -0.479956 7.64798 5 
2454 1 -4.81091 34.382 -2.62434 10.5204 5 
2456 1 -5.45864 31.6051 -2.00147 7.60391 2 
2457 1 -8.71128 32.1293 -1.511 2.14651 5 
2458 1 -9.00958 29.4221 -0.763791 3.28285 5 
2459 1 -11.8053 29.2132 -0.927408 5.34513 5 
2461 1 -0.930186 37.2801 -6.04925 0.186419 1 
2462 1 -1.33651 34.4767 -5.18062 3.80732 5 
2463 1 -2.70364 35.6108 -7.49949 0.0472173 1 
2464 1 -4.14968 34.9523 -5.19913 5.74468 5 
2465 1 -3.04405 32.8639 -6.75937 0.075031 1 
2466 1 -4.32549 32.2727 -4.35487 5.74175 5 
2467 1 -5.91692 33.2588 -6.53843 0.119694 1 
2468 1 -7.19524 32.6847 -3.98333 0.79813 5 