ITEM: TIMESTEP
0
ITEM: NUMBER OF ATOMS
7272
ITEM: BOX BOUNDS xy xz yz pp pp ss
-2.2557182655999998e+01 1.1779862053500000e+02 -2.2557182655999998e+01
0.0000000000000000e+00 3.4598172071000000e+01 0.0000000000000000e+00
-9.0518096297191448e+01 8.5971460771688328e+01 0.0000000000000000e+00
ITEM: ATOMS id type x y z c_csym c_cna 
3271 1 -5.17038 33.5415 -14.1201 2.63759e-05 1 
3277 1 -0.993568 29.6268 -13.9236 1.64246e-05 1 
3278 1 -3.08202 31.5843 -14.022 1.64448e-05 1 
3279 1 -0.368155 32.4049 -13.6288 1.85282e-05 1 
3280 1 -2.45628 34.3625 -13.7261 2.86168e-05 1 
3281 1 -2.24626 32.6028 -11.4755 7.11113e-05 1 
3282 1 -4.33375 34.5602 -11.5729 0.000122287 1 
3283 1 -0.158211 30.644 -11.3777 0.000114535 1 
3284 1 -1.41351 33.622 -8.92632 0.000787369 1 
3285 1 21.975 0.0545135 -6.38398 0.0104604 1 
4143 1 -10.603 31.8963 -14.9051 1.29359e-05 1 
4145 1 12.5817 0.0778711 -14.612 1.56675e-05 1 
4168 1 -6.42519 27.9831 -14.7097 1.15543e-05 1 
4169 1 -8.51406 29.9397 -14.8075 1.24908e-05 1 
4170 1 -5.79748 30.7626 -14.4157 2.01077e-05 1 
4171 1 -7.88636 32.7193 -14.514 1.9505e-05 1 
4172 1 -7.67698 30.9596 -12.2673 8.69516e-05 1 
4173 1 -9.76651 32.9163 -12.3655 7.79436e-05 1 
4174 1 -7.04867 33.7393 -11.9712 9.9707e-05 1 
4175 1 -8.92779 33.9379 -9.82619 0.000509083 1 
4185 1 -2.24706 24.0698 -14.514 1.9505e-05 1 
4186 1 -4.3362 26.0265 -14.612 1.56675e-05 1 
4187 1 -1.61984 26.8488 -14.2189 2.31902e-05 1 
4188 1 -3.70879 28.8056 -14.3176 1.58701e-05 1 
4189 1 -3.49896 27.0464 -12.0704 7.23541e-05 1 
4190 1 -5.58805 29.0031 -12.1688 6.63841e-05 1 
4191 1 -2.87173 29.8246 -11.7736 5.1869e-05 1 
4192 1 -4.95969 31.7825 -11.8717 0.000120573 1 
4193 1 -4.74865 30.0235 -9.62589 0.000392479 1 
4194 1 -6.8367 31.981 -9.72694 0.000636522 1 
4195 1 -4.12105 32.802 -9.32111 0.000862928 1 
4196 1 16.3472 0.160554 -9.42336 0.000454252 1 
4197 1 -5.99202 33.0036 -7.17731 0.00571284 1 
4198 1 -0.15818 22.1131 -14.4157 2.01077e-05 1 
4199 1 -1.40937 25.0898 -11.9712 9.9707e-05 1 
4200 1 -0.782723 27.8675 -11.6728 0.000106907 1 
4201 1 -0.57069 26.1092 -9.42336 0.000454252 1 
4202 1 -2.66019 28.0654 -9.52597 0.000281262 1 
4203 1 0.0541523 28.884 -9.12038 0.000695558 1 
4204 1 -2.03525 30.8414 -9.22639 0.000400659 1 
4205 1 -1.82191 29.0763 -6.97425 0.00284771 1 
4206 1 -3.90578 31.0421 -7.0741 0.00432855 1 
4207 1 -1.20685 31.8571 -6.68187 0.00977724 1 
4208 1 -3.28621 33.8178 -6.75195 0.00722773 1 
4209 1 -3.07739 32.0497 -4.48307 0.048573 1 
4210 1 -5.14989 34.0074 -4.58078 0.0317112 1 
4211 1 0.263614 27.1206 -6.86121 0.0036267 1 
4212 1 -0.998843 30.0767 -4.44025 0.0729645 1 
4213 1 -0.369264 32.8954 -4.19124 0.0948412 1 
22105 1 0.474689 0.248687 -4.18939 0.0572243 1 
22101 1 5.84389 1.90998 -3.45869 0.173461 1 
5090 1 -17.2876 33.2261 -13.2386 1.94612e-05 1 
5131 1 -13.1112 29.3126 -13.0441 4.04297e-05 1 
5132 1 -15.1991 31.2692 -13.1409 2.70022e-05 1 
5133 1 -12.4839 32.0922 -12.7539 4.14403e-05 1 
5134 1 -14.5726 34.0486 -12.8503 1.52398e-05 1 
5135 1 -14.3646 32.2869 -10.5997 0.000121621 1 
5136 1 -16.454 34.2439 -10.6976 6.17703e-05 1 
5167 1 -8.9333 25.3991 -12.8503 1.52398e-05 1 
5168 1 -11.0225 27.3557 -12.9476 3.21744e-05 1 
5169 1 -8.30592 28.179 -12.5597 3.95362e-05 1 
5170 1 -10.3951 30.1355 -12.6575 6.45079e-05 1 
5171 1 -10.1889 28.3736 -10.4096 0.000288599 1 
5172 1 -12.2778 30.3303 -10.5049 0.000322476 1 
5173 1 -9.55915 31.1557 -10.1225 0.0004661 1 
5174 1 -11.6485 33.1124 -10.2171 0.000327732 1 
5175 1 -11.4483 31.3503 -7.97549 0.00387888 1 
5176 1 -13.53 33.3043 -8.06032 0.00172356 1 
5177 1 -10.8106 34.1365 -7.6851 0.00377375 1 
5178 1 -12.6863 34.3076 -5.5208 0.0233166 1 
5194 1 -2.87476 21.2901 -14.8075 1.24908e-05 1 
5195 1 -4.96372 23.2468 -14.9051 1.29359e-05 1 
5196 1 -4.75583 21.486 -12.6575 6.45079e-05 1 
5197 1 -6.84461 23.4426 -12.7539 4.14403e-05 1 
5198 1 -4.12721 24.2668 -12.3655 7.79436e-05 1 
5199 1 -6.21677 26.2231 -12.4623 4.35014e-05 1 
5200 1 -6.00919 24.4628 -10.2171 0.000327732 1 
5201 1 -8.09887 26.4176 -10.3112 0.000122579 1 
5202 1 -5.37933 27.244 -9.92373 0.0003183 1 
5203 1 -7.46838 29.1985 -10.0227 0.00029107 1 
5204 1 -7.26315 27.4331 -7.77688 0.00203293 1 
5205 1 -9.35262 29.3934 -7.88301 0.00137424 1 
5206 1 -6.62718 30.2212 -7.48936 0.00187897 1 
5207 1 -8.71787 32.1775 -7.59508 0.00285021 1 
5208 1 -8.51394 30.4164 -5.36395 0.00873611 1 
5209 1 -10.6121 32.3723 -5.47433 0.0371142 1 
5210 1 -7.87327 33.2047 -5.06858 0.0306782 1 
5211 1 -9.78711 33.3687 -2.98127 0.136411 1 
5214 1 -0.785899 19.3336 -14.7097 1.15543e-05 1 
5215 1 -0.577471 17.5735 -12.4623 4.35014e-05 1 
5216 1 -2.66662 19.5295 -12.5597 3.95362e-05 1 
5217 1 0.051245 20.3535 -12.1688 6.63841e-05 1 
5218 1 -2.03769 22.31 -12.2673 8.69516e-05 1 
5219 1 -1.82908 20.5489 -10.0227 0.00029107 1 
5220 1 -3.91985 22.5061 -10.1225 0.0004661 1 
5221 1 -1.1974 23.3314 -9.72694 0.000636522 1 
5222 1 -3.28849 25.2884 -9.82619 0.000509084 1 
5223 1 -3.07858 23.5279 -7.59508 0.00285021 1 
5224 1 -5.17134 25.4869 -7.6851 0.00377375 1 
5225 1 -2.44645 26.3105 -7.27908 0.00459886 1 
5226 1 -4.53714 28.2652 -7.38343 0.0020191 1 
5227 1 -4.32589 26.5108 -5.1477 0.0209468 1 
5228 1 -6.42451 28.4545 -5.26421 0.01096 1 
5229 1 -3.68961 29.2795 -4.82732 0.0193987 1 
5230 1 -5.77011 31.2455 -4.95338 0.0395311 1 
5231 1 -5.57237 29.467 -2.76498 0.163806 1 
5232 1 -7.6435 31.4743 -2.88129 0.435037 1 
8708 1 -10.8039 17.5478 -4.18939 0.0572243 1 
5234 1 -7.03449 34.17 -2.46938 0.175592 1 
5236 1 0.259963 18.5945 -9.92373 0.0003183 1 
5237 1 -0.98788 21.5717 -7.48936 0.00187897 1 
5238 1 -0.352728 24.354 -7.17731 0.00571284 1 
5239 1 -0.130814 22.596 -4.95338 0.0395311 1 
5240 1 -2.23398 24.5551 -5.06858 0.0306782 1 
5241 1 -1.60852 27.3127 -4.6913 0.0404837 1 
5242 1 -1.3952 25.5204 -2.46938 0.175592 1 
5243 1 -3.49997 27.5215 -2.57437 0.167199 1 
22056 1 6.93323 0.662053 -8.15864 0.0015253 1 
7428 1 -16.4432 26.1973 -4.18939 0.0572243 1 
22021 1 11.9479 6.27315 -2.29362 0.235163 1 
6168 1 -17.9129 30.4475 -13.5306 2.93578e-05 1 
6169 1 -20.0013 32.4049 -13.6288 1.85282e-05 1 
6172 1 -19.1677 33.4228 -11.0843 7.80408e-05 1 
6173 1 -21.0466 33.622 -8.92632 0.000787369 1 
6206 1 -14.362 23.7554 -13.6288 1.85282e-05 1 
6208 1 -13.737 26.5339 -13.3355 3.53656e-05 1 
6209 1 -15.8249 28.4908 -13.4321 4.01507e-05 1 
6210 1 -15.6161 26.7314 -11.1785 0.00016177 1 
6211 1 -17.7033 28.6872 -11.2764 0.000140619 1 
6212 1 -14.9915 29.5087 -10.8872 0.000153685 1 
6213 1 -17.0788 31.4648 -10.9868 0.000108657 1 
6214 1 -16.8698 29.7051 -8.72773 0.000379487 1 
6215 1 -18.9584 31.6605 -8.83385 0.00109128 1 
6216 1 -16.244 32.4815 -8.44726 0.000825841 1 
6217 1 -18.3355 34.4425 -8.54233 0.000964878 1 
6218 1 -18.122 32.6814 -6.30625 0.0128515 1 
6219 1 2.34186 0.0545135 -6.38398 0.0104604 1 
6248 1 -10.1857 19.8413 -13.4321 4.01507e-05 1 
6249 1 -12.2736 21.798 -13.5306 2.93578e-05 1 
6250 1 -9.55976 22.6197 -13.1409 2.70022e-05 1 
6251 1 -11.6483 24.5766 -13.2386 1.94612e-05 1 
6252 1 -11.4395 22.8152 -10.9868 0.000108657 1 
6253 1 -13.5284 24.7733 -11.0843 7.80408e-05 1 
6254 1 -10.8147 25.5943 -10.6976 6.17703e-05 1 
6255 1 -12.9046 27.5518 -10.793 0.000210549 1 
6256 1 -12.6962 25.793 -8.54233 0.000964878 1 
6257 1 -14.7845 27.7526 -8.62894 0.00114183 1 
6258 1 -12.0753 28.5658 -8.25359 0.00350773 1 
6259 1 -14.1583 30.5256 -8.3417 0.00154972 1 
6260 1 -13.9493 28.7752 -6.06791 0.0130844 1 
6261 1 -16.0316 30.7254 -6.17908 0.00725712 1 
6262 1 -13.3394 31.544 -5.78735 0.0233254 1 
6263 1 -15.4102 33.4938 -5.90968 0.0176719 1 
6264 1 -15.2246 31.7482 -3.56969 0.213903 1 
6265 1 -17.2881 33.6793 -3.75345 0.31691 1 
6266 1 -14.5405 34.5206 -3.42396 0.117844 1 
6288 1 -6.00901 15.927 -13.2386 1.94612e-05 1 
6289 1 -8.0977 17.8843 -13.3355 3.53656e-05 1 
6290 1 -5.38322 18.7061 -12.9476 3.21744e-05 1 
6291 1 -7.47186 20.663 -13.0441 4.04297e-05 1 
6292 1 -7.26529 18.9023 -10.793 0.000210549 1 
6293 1 -9.35223 20.8592 -10.8872 0.000153685 1 
6294 1 -6.63848 21.6808 -10.5049 0.000322476 1 
6295 1 -8.72529 23.6374 -10.5997 0.000121621 1 
6296 1 -8.51902 21.876 -8.3417 0.00154972 1 
6297 1 -10.6047 23.832 -8.44726 0.000825841 1 
6298 1 -7.89075 24.6547 -8.06032 0.00172356 1 
6299 1 -9.98466 26.6107 -8.15864 0.0015253 1 
6300 1 -9.77088 24.8442 -5.90968 0.0176719 1 
6301 1 -11.8729 26.8039 -5.98513 0.0187398 1 
6302 1 -9.1602 27.6306 -5.64094 0.0141869 1 
6303 1 -11.2481 29.5838 -5.74656 0.0321886 1 
6304 1 -11.074 27.8586 -3.45869 0.173461 1 
6305 1 -13.1106 29.7967 -3.49742 1.12246 5 
6306 1 -10.4202 30.5965 -3.27084 1.73025 5 
6307 1 -12.481 32.518 -3.22681 1.198 5 
6317 1 -1.83257 12.0135 -13.0441 4.04297e-05 1 
6318 1 -3.92047 13.9702 -13.1409 2.70022e-05 1 
6319 1 -1.20531 14.7931 -12.7539 4.14403e-05 1 
6320 1 -3.29401 16.7495 -12.8503 1.52398e-05 1 
6321 1 -3.08599 14.9878 -10.5997 0.000121621 1 
6322 1 -5.17537 16.9448 -10.6976 6.17703e-05 1 
6323 1 -2.45958 17.768 -10.3112 0.000122579 1 
6324 1 -4.54956 19.7241 -10.4096 0.000288599 1 
6325 1 -4.34536 17.9611 -8.15864 0.0015253 1 
6326 1 -6.43598 19.9163 -8.25359 0.00350773 1 
6327 1 -3.71332 20.7438 -7.88301 0.00137424 1 
6328 1 -5.80902 22.7008 -7.97549 0.00387888 1 
6329 1 -5.6088 20.9342 -5.74656 0.0321886 1 
6330 1 -7.70015 22.8944 -5.78735 0.0233254 1 
6331 1 -4.97284 23.7227 -5.47433 0.0371142 1 
6332 1 -7.04696 25.658 -5.5208 0.0233166 1 
6333 1 -6.84171 23.8684 -3.22681 1.198 5 
6334 1 -8.90125 25.871 -3.42396 0.117844 1 
6335 1 -6.20111 26.6996 -3.01414 0.0473035 1 
6336 1 -8.33528 28.6236 -3.15288 0.144857 1 
6341 1 0.256076 10.0566 -12.9476 3.21744e-05 1 
6342 1 -0.999188 13.0312 -10.5049 0.000322476 1 
6343 1 -0.369891 15.8133 -10.2171 0.000327732 1 
6344 1 -0.169729 14.0512 -7.97549 0.00387888 1 
6345 1 -2.25146 16.0052 -8.06032 0.00172356 1 
6346 1 -1.62386 18.7836 -7.77688 0.00203293 1 
6347 1 -1.40767 17.0085 -5.5208 0.0233166 1 
6348 1 -3.52091 18.981 -5.64094 0.0141869 1 
6349 1 -0.785216 19.8049 -5.26421 0.01096 1 
6350 1 -2.87464 21.7669 -5.36395 0.00873611 1 
6351 1 -2.69598 19.9741 -3.15288 0.144857 1 
6352 1 -4.78095 21.947 -3.27084 1.73025 5 
6353 1 -2.0042 22.8247 -2.88129 0.435037 1 
6354 1 -4.14782 24.7191 -2.98127 0.136411 1 
6358 1 -0.561812 18.0501 -3.01414 0.0473035 1 
6359 1 0.0669277 20.8175 -2.76498 0.163806 1 
18855 1 34.2963 32.2218 -2.29362 0.235163 1 
18929 1 39.9355 23.5722 -2.29362 0.235163 1 
21993 1 6.30864 14.9227 -2.29362 0.235163 1 
5233 1 -4.96996 32.2218 -2.29362 0.235163 1 
20891 1 20.3024 23.5722 -2.29362 0.235163 1 
20858 1 14.6631 32.2218 -2.29362 0.235163 1 
21395 1 25.9417 14.9227 -2.29362 0.235163 1 
7386 1 -18.7406 29.9049 -6.56537 0.00889364 1 
7390 1 -20.0024 32.8954 -4.19124 0.0948412 1 
7418 1 -12.0641 20.0377 -11.2764 0.000140619 1 
7422 1 -13.3191 23.0109 -8.83385 0.00109128 1 
7423 1 -15.4073 24.9724 -8.92632 0.000787369 1 
7426 1 -14.576 26.0031 -6.38398 0.0104604 1 
7427 1 -16.6653 27.9471 -6.46598 0.00275016 1 
7430 1 -15.8345 28.9704 -3.92936 0.0818323 1 
7431 1 -17.8898 30.9483 -4.02105 0.257215 1 
7453 1 -6.63428 13.1484 -13.5306 2.93578e-05 1 
7454 1 -8.72267 15.1059 -13.6288 1.85282e-05 1 
7457 1 -7.88909 16.1238 -11.0843 7.80408e-05 1 
7458 1 -9.97682 18.0818 -11.1785 0.00016177 1 
7459 1 -9.76802 16.3229 -8.92632 0.000787369 1 
7461 1 -9.1452 19.103 -8.62894 0.00114183 1 
7462 1 -11.2305 21.0555 -8.72773 0.000379487 1 
7463 1 -11.026 19.2975 -6.46598 0.00275016 1 
7464 1 -13.1013 21.2554 -6.56537 0.00889364 1 
7465 1 -10.3923 22.0759 -6.17908 0.00725712 1 
7466 1 -12.4827 24.0319 -6.30625 0.0128515 1 
7467 1 -12.2505 22.2988 -4.02105 0.257215 1 
7468 1 -14.3631 24.2458 -4.19124 0.0948412 1 
7469 1 -11.6488 25.0298 -3.75345 0.31691 1 
7470 1 -13.7705 27.0351 -3.8034 0.0762512 1 
7484 1 -3.08337 6.45632 -13.6288 1.85282e-05 1 
7486 1 -2.4584 9.23478 -13.3355 3.53656e-05 1 
7487 1 -4.54636 11.1918 -13.4321 4.01507e-05 1 
7488 1 -4.33752 9.43229 -11.1785 0.00016177 1 
7489 1 -6.42476 11.3881 -11.2764 0.000140619 1 
7490 1 -3.71294 12.2096 -10.8872 0.000153685 1 
7491 1 -5.80021 14.1657 -10.9868 0.000108657 1 
7492 1 -5.59124 12.406 -8.72773 0.000379487 1 
7493 1 -7.67984 14.3614 -8.83385 0.00109128 1 
7494 1 -4.96539 15.1824 -8.44726 0.000825841 1 
7495 1 -7.05689 17.1434 -8.54233 0.000964878 1 
7496 1 -6.8434 15.3823 -6.30625 0.0128515 1 
7497 1 -8.93673 17.3536 -6.38398 0.0104604 1 
7498 1 -6.2336 18.1543 -5.98513 0.0187398 1 
7499 1 -8.31001 20.1257 -6.06791 0.0130844 1 
7500 1 -8.13124 18.3855 -3.8034 0.0762512 1 
7501 1 -10.1952 20.3208 -3.92936 0.0818323 1 
7502 1 -7.47126 21.1471 -3.49742 1.12246 5 
7503 1 -9.58532 23.0987 -3.56969 0.213903 1 
7509 1 -0.994982 4.4989 -13.5306 2.93578e-05 1 
7510 1 -0.369717 7.2775 -13.2386 1.94612e-05 1 
7511 1 -0.16091 5.51613 -10.9868 0.000108657 1 
7512 1 -2.2498 7.47422 -11.0843 7.80408e-05 1 
7513 1 -1.62599 10.2527 -10.793 0.000210549 1 
7514 1 -1.4176 8.49388 -8.54233 0.000964878 1 
7515 1 -3.50591 10.4535 -8.62894 0.00114183 1 
7516 1 -0.796683 11.2667 -8.25359 0.00350773 1 
7517 1 -2.87973 13.2265 -8.3417 0.00154972 1 
7518 1 -2.67072 11.4761 -6.06791 0.0130844 1 
7519 1 -4.75301 13.4263 -6.17908 0.00725712 1 
7520 1 -2.06085 14.2449 -5.78735 0.0233254 1 
7521 1 -4.13159 16.1947 -5.90968 0.0176719 1 
7522 1 -3.94603 14.4491 -3.56969 0.213903 1 
7523 1 -6.00947 16.3802 -3.75345 0.31691 1 
7524 1 -3.26195 17.2215 -3.42396 0.117844 1 
7525 1 -5.4347 19.2091 -3.45869 0.173461 1 
7529 1 -0.594304 9.50478 -5.98513 0.0187398 1 
7530 1 0.0304964 12.2847 -5.74656 0.0321886 1 
7531 1 0.204596 10.5595 -3.45869 0.173461 1 
7532 1 -1.83196 12.4976 -3.49742 1.12246 5 
7533 1 -1.20241 15.2189 -3.22681 1.198 5 
21406 1 31.581 6.27315 -2.29362 0.235163 1 
19794 1 51.2141 6.27315 -2.29362 0.235163 1 
19766 1 45.5748 14.9227 -2.29362 0.235163 1 
21827 1 0.669341 23.5722 -2.29362 0.235163 1 
7485 1 -5.17149 8.41388 -13.7261 2.86168e-05 1 
7414 1 -10.8108 17.0634 -13.7261 2.86168e-05 1 
6207 1 -16.4501 25.713 -13.7261 2.86168e-05 1 
8703 1 -7.462 12.6058 -6.56537 0.00889364 1 
8707 1 -8.72378 15.5963 -4.19124 0.0948412 1 
8715 1 -0.78546 2.73858 -11.2764 0.000140619 1 
8719 1 -2.04054 5.71185 -8.83385 0.00109128 1 
8720 1 -4.12873 7.67333 -8.92632 0.000787369 1 
8723 1 -3.29743 8.70406 -6.38398 0.0104604 1 
8724 1 -5.38667 10.648 -6.46598 0.00275016 1 
8725 1 -5.16461 8.89823 -4.18939 0.0572243 1 
8727 1 -4.55593 11.6713 -3.92936 0.0818323 1 
8728 1 -6.6112 13.6493 -4.02105 0.257215 1 
8734 1 0.0480539 3.75644 -8.72773 0.000379487 1 
8735 1 0.252628 1.99842 -6.46598 0.00275016 1 
8736 1 -1.82271 3.95628 -6.56537 0.00889364 1 
8737 1 -1.2041 6.73278 -6.30625 0.0128515 1 
8738 1 -0.971909 4.99971 -4.02105 0.257215 1 
8739 1 -3.08448 6.94674 -4.19124 0.0948412 1 
8740 1 -0.370172 7.73068 -3.75345 0.31691 1 
8741 1 -2.49195 9.73599 -3.8034 0.0762512 1 
6126 1 -22.0894 34.3625 -13.7261 2.86168e-05 1 
21998 1 11.5386 1.29541 -9.92373 0.0003183 1 
21997 1 13.4189 1.09777 -12.0704 7.23541e-05 1 
21994 1 4.2441 16.8709 -2.46938 0.175592 1 
21992 1 3.63509 14.1752 -2.88129 0.435037 1 
21991 1 5.70622 12.168 -2.76498 0.163806 1 
21990 1 5.50848 13.9464 -4.95338 0.0395311 1 
21989 1 7.58898 11.9804 -4.82732 0.0193987 1 
21988 1 4.85408 11.1554 -5.26421 0.01096 1 
21987 1 6.9527 9.2117 -5.1477 0.0209468 1 
21986 1 6.74145 10.9661 -7.38343 0.0020191 1 
21985 1 8.83214 9.01141 -7.27908 0.00459886 1 
21984 1 6.10725 8.18785 -7.6851 0.00377375 1 
21983 1 8.20001 6.22883 -7.59508 0.00285021 1 
21982 1 7.9901 7.98928 -9.82619 0.000509083 1 
21981 1 10.0812 6.03235 -9.72694 0.000636522 1 
21980 1 7.35874 5.20704 -10.1225 0.0004661 1 
21979 1 9.44951 3.24985 -10.0227 0.00029107 1 
21978 1 9.24091 5.01095 -12.2673 8.69516e-05 1 
21977 1 11.3298 3.05446 -12.1688 6.63841e-05 1 
21976 1 8.61197 2.2304 -12.5597 3.95362e-05 1 
21975 1 10.7011 0.274458 -12.4623 4.35014e-05 1 
21974 1 10.4927 2.03448 -14.7097 1.15543e-05 1 
21973 1 2.13933 18.8719 -2.57437 0.167199 1 
21972 1 1.49148 16.0696 -2.98127 0.136411 1 
21971 1 1.3134 17.8612 -5.1477 0.0209468 1 
21970 1 3.40532 15.9056 -5.06858 0.0306782 1 
21969 1 0.666451 15.0732 -5.47433 0.0371142 1 
21968 1 2.76465 13.1173 -5.36395 0.00873611 1 
21967 1 2.56072 14.8784 -7.59508 0.00285021 1 
21966 1 4.65142 12.9222 -7.48936 0.00187897 1 
21965 1 1.92597 12.0943 -7.88301 0.00137424 1 
21964 1 4.01544 10.134 -7.77688 0.00203293 1 
22010 1 7.77862 10.2224 -2.57437 0.167199 1 
21963 1 3.81022 11.8994 -10.0227 0.00029107 1 
21962 1 5.89926 9.94495 -9.92373 0.0003183 1 
21961 1 3.17972 9.11849 -10.3112 0.000122579 1 
21960 1 5.2694 7.16373 -10.2171 0.000327732 1 
21959 1 5.06182 8.924 -12.4623 4.35014e-05 1 
22009 1 9.88339 8.22134 -2.46938 0.175592 1 
21958 1 7.15138 6.9677 -12.3655 7.79436e-05 1 
21957 1 4.43398 6.14356 -12.7539 4.14403e-05 1 
21956 1 6.52276 4.1869 -12.6575 6.45079e-05 1 
21955 1 6.31487 5.94771 -14.9051 1.29359e-05 1 
21954 1 8.40383 3.99105 -14.8075 1.24908e-05 1 
22014 1 17.1815 1.17199 -6.86121 0.0036267 1 
22008 1 9.67007 10.0136 -4.6913 0.0404837 1 
21949 1 0.467952 16.8374 -7.6851 0.00377375 1 
21948 1 1.71944 13.8566 -10.1225 0.0004661 1 
21947 1 1.08974 11.0745 -10.4096 0.000288599 1 
22007 1 11.768 8.05876 -4.58078 0.0317112 1 
16747 1 34.0958 33.5415 -14.1201 2.63759e-05 1 
22006 1 9.04462 7.25603 -5.06858 0.0306782 1 
16788 1 38.2726 29.6268 -13.9236 1.64246e-05 1 
16789 1 36.1842 31.5843 -14.022 1.64448e-05 1 
22005 1 11.1478 5.2969 -4.95338 0.0395311 1 
16792 1 37.0199 32.6028 -11.4755 7.11113e-05 1 
16793 1 34.9325 34.5602 -11.5729 0.000122287 1 
21946 1 0.883461 12.8364 -12.6575 6.45079e-05 1 
22013 1 14.4714 0.361871 -7.27908 0.00459886 1 
22004 1 10.9259 7.05496 -7.17731 0.00571284 1 
16831 1 40.3611 27.6698 -13.8243 2.8197e-05 1 
21945 1 2.97268 10.8799 -12.5597 3.95362e-05 1 
21944 1 2.34529 8.09997 -12.8503 1.52398e-05 1 
22003 1 13.0121 5.09345 -7.0741 0.00432855 1 
17762 1 28.6632 31.8963 -14.9051 1.29359e-05 1 
17764 1 51.8479 0.0778711 -14.612 1.56675e-05 1 
17803 1 32.841 27.9831 -14.7097 1.15543e-05 1 
17804 1 30.7522 29.9397 -14.8075 1.24908e-05 1 
17805 1 33.4687 30.7626 -14.4157 2.01077e-05 1 
17806 1 31.3799 32.7193 -14.514 1.9505e-05 1 
17807 1 31.5892 30.9596 -12.2673 8.69517e-05 1 
17808 1 29.4997 32.9163 -12.3655 7.79437e-05 1 
17809 1 32.2175 33.7393 -11.9712 9.9707e-05 1 
17810 1 30.3384 33.9379 -9.82619 0.000509084 1 
17844 1 37.0191 24.0698 -14.514 1.9505e-05 1 
17845 1 34.93 26.0265 -14.612 1.56675e-05 1 
17846 1 37.6464 26.8488 -14.2189 2.31902e-05 1 
17847 1 35.5574 28.8056 -14.3176 1.58701e-05 1 
17848 1 35.7672 27.0464 -12.0704 7.23541e-05 1 
17849 1 33.6782 29.0031 -12.1688 6.63841e-05 1 
17850 1 36.3945 29.8246 -11.7736 5.1869e-05 1 
17851 1 34.3065 31.7825 -11.8717 0.000120573 1 
17852 1 34.5176 30.0235 -9.62589 0.000392479 1 
17853 1 32.4295 31.981 -9.72694 0.000636522 1 
17854 1 35.1452 32.802 -9.32111 0.000862928 1 
17855 1 55.6134 0.160554 -9.42336 0.000454252 1 
17856 1 33.2742 33.0036 -7.17731 0.00571284 1 
17885 1 41.1967 20.1561 -14.3176 1.58701e-05 1 
17886 1 39.108 22.1131 -14.4157 2.01077e-05 1 
17887 1 41.8235 22.9348 -14.022 1.64448e-05 1 
17888 1 39.7351 24.8919 -14.1201 2.63759e-05 1 
17889 1 39.9458 23.1329 -11.8717 0.000120573 1 
17890 1 37.8568 25.0898 -11.9712 9.9707e-05 1 
17891 1 40.5717 25.9106 -11.5729 0.000122287 1 
17892 1 38.4835 27.8675 -11.6728 0.000106907 1 
17893 1 38.6955 26.1092 -9.42336 0.000454252 1 
17894 1 36.606 28.0654 -9.52597 0.000281262 1 
17895 1 39.3204 28.884 -9.12038 0.000695558 1 
17896 1 37.231 30.8414 -9.22639 0.000400659 1 
17897 1 37.4443 29.0763 -6.97425 0.00284771 1 
17898 1 35.3604 31.0421 -7.0741 0.00432855 1 
17899 1 38.0594 31.8571 -6.68187 0.00977724 1 
17900 1 35.98 33.8178 -6.75195 0.00722772 1 
17901 1 36.1888 32.0497 -4.48307 0.048573 1 
17902 1 34.1163 34.0074 -4.58078 0.0317112 1 
17926 1 45.3744 16.2424 -14.1201 2.63759e-05 1 
17927 1 43.2857 18.1992 -14.2189 2.31902e-05 1 
17928 1 46.0004 19.0203 -13.8243 2.8197e-05 1 
17929 1 43.9119 20.9773 -13.9236 1.64246e-05 1 
17930 1 44.1228 19.218 -11.6728 0.000106907 1 
17931 1 42.0338 21.1751 -11.7736 5.1869e-05 1 
17933 1 42.6592 23.9532 -11.4755 7.11113e-05 1 
17934 1 42.8703 22.1918 -9.22639 0.000400659 1 
17935 1 40.7845 24.1525 -9.32111 0.000862928 1 
17938 1 41.6193 25.1683 -6.75195 0.00722772 1 
17939 1 39.5298 27.1206 -6.86121 0.0036267 1 
17942 1 40.3359 28.1239 -4.31068 0.0628381 1 
17943 1 38.2674 30.0767 -4.44025 0.0729645 1 
22097 1 1.69327 5.79957 -3.56969 0.213903 1 
22096 1 3.80733 3.84804 -3.49742 1.12246 5 
22002 1 10.2907 4.27261 -7.48936 0.00187897 1 
17966 1 49.5512 12.3277 -13.9236 1.64246e-05 1 
17967 1 47.4628 14.2852 -14.022 1.64448e-05 1 
22001 1 12.3807 2.31653 -7.38343 0.0020191 1 
17970 1 48.2985 15.3037 -11.4755 7.11113e-05 1 
17971 1 46.211 17.2611 -11.5729 0.000122287 1 
17975 1 44.9597 20.2345 -9.12038 0.000695558 1 
17979 1 43.6987 23.2075 -6.68187 0.00977724 1 
22054 1 8.81901 0.468949 -10.3112 0.000122579 1 
22015 1 15.096 3.12769 -6.97425 0.00284771 1 
22000 1 12.1692 4.07485 -9.62589 0.000392479 1 
18003 1 51.6397 10.3708 -13.8243 2.8197e-05 1 
21999 1 14.2577 2.11675 -9.52597 0.000281262 1 
18672 1 21.9786 33.2261 -13.2386 1.94612e-05 1 
18713 1 26.155 29.3126 -13.0441 4.04297e-05 1 
18714 1 24.0671 31.2692 -13.1409 2.70022e-05 1 
18715 1 26.7823 32.0922 -12.7539 4.14403e-05 1 
18716 1 24.6936 34.0486 -12.8503 1.52398e-05 1 
18717 1 24.9016 32.2869 -10.5997 0.000121621 1 
18718 1 22.8122 34.2439 -10.6976 6.17703e-05 1 
18755 1 30.3329 25.3991 -12.8503 1.52398e-05 1 
18756 1 28.2437 27.3557 -12.9476 3.21744e-05 1 
18757 1 30.9603 28.179 -12.5597 3.95362e-05 1 
18758 1 28.8711 30.1355 -12.6575 6.45079e-05 1 
18759 1 29.0774 28.3736 -10.4096 0.000288599 1 
18760 1 26.9884 30.3303 -10.5049 0.000322476 1 
18761 1 29.7071 31.1557 -10.1225 0.0004661 1 
18762 1 27.6177 33.1124 -10.2171 0.000327732 1 
18763 1 27.8179 31.3503 -7.97549 0.00387888 1 
18764 1 25.7362 33.3043 -8.06032 0.00172356 1 
18765 1 28.4556 34.1365 -7.6851 0.00377375 1 
18766 1 26.5799 34.3076 -5.5208 0.0233166 1 
18795 1 36.3914 21.2901 -14.8075 1.24908e-05 1 
18796 1 34.3025 23.2468 -14.9051 1.29359e-05 1 
18797 1 34.5104 21.486 -12.6575 6.45079e-05 1 
18798 1 32.4216 23.4426 -12.7539 4.14403e-05 1 
18799 1 35.139 24.2668 -12.3655 7.79437e-05 1 
18800 1 33.0494 26.2231 -12.4623 4.35014e-05 1 
18801 1 33.257 24.4628 -10.2171 0.000327732 1 
18802 1 31.1673 26.4176 -10.3112 0.000122579 1 
18803 1 33.8869 27.244 -9.92373 0.0003183 1 
18804 1 31.7978 29.1985 -10.0227 0.00029107 1 
18805 1 32.0031 27.4331 -7.77688 0.00203293 1 
18806 1 29.9136 29.3934 -7.88301 0.00137424 1 
18807 1 32.639 30.2212 -7.48936 0.00187897 1 
18808 1 30.5483 32.1775 -7.59508 0.00285021 1 
18809 1 30.7523 30.4164 -5.36395 0.00873611 1 
18810 1 28.6541 32.3723 -5.47433 0.0371142 1 
18811 1 31.3929 33.2047 -5.06858 0.0306782 1 
18812 1 29.4791 33.3687 -2.98127 0.136411 1 
18833 1 39.9418 14.5973 -14.9051 1.29359e-05 1 
18835 1 40.5693 17.377 -14.612 1.56675e-05 1 
18836 1 38.4803 19.3336 -14.7097 1.15543e-05 1 
18837 1 38.6887 17.5735 -12.4623 4.35014e-05 1 
18838 1 36.5996 19.5295 -12.5597 3.95362e-05 1 
18839 1 39.3175 20.3535 -12.1688 6.63841e-05 1 
18840 1 37.2285 22.31 -12.2673 8.69517e-05 1 
18841 1 37.4371 20.5489 -10.0227 0.00029107 1 
18842 1 35.3464 22.5061 -10.1225 0.0004661 1 
18843 1 38.0688 23.3314 -9.72694 0.000636522 1 
18844 1 35.9777 25.2884 -9.82619 0.000509084 1 
18845 1 36.1876 23.5279 -7.59508 0.00285021 1 
18846 1 34.0949 25.4869 -7.6851 0.00377375 1 
18847 1 36.8198 26.3105 -7.27908 0.00459886 1 
18848 1 34.7291 28.2652 -7.38343 0.0020191 1 
18849 1 34.9403 26.5108 -5.1477 0.0209468 1 
18850 1 32.8417 28.4545 -5.26421 0.01096 1 
18851 1 35.5766 29.2795 -4.82732 0.0193987 1 
18852 1 33.4961 31.2455 -4.95338 0.0395311 1 
18853 1 33.6938 29.467 -2.76498 0.163806 1 
18854 1 31.6227 31.4743 -2.88129 0.435037 1 
22051 1 1.50771 7.54516 -5.90968 0.0176719 1 
18856 1 32.2317 34.17 -2.46938 0.175592 1 
18874 1 44.1196 10.684 -14.7097 1.15543e-05 1 
18875 1 42.0307 12.6406 -14.8075 1.24908e-05 1 
18876 1 44.7473 13.4635 -14.4157 2.01077e-05 1 
18877 1 42.6584 15.4203 -14.514 1.9505e-05 1 
18878 1 42.8678 13.6605 -12.2673 8.69517e-05 1 
18879 1 40.7783 15.6172 -12.3655 7.79437e-05 1 
18880 1 43.4961 16.4402 -11.9712 9.9707e-05 1 
18881 1 41.4065 18.3969 -12.0704 7.23541e-05 1 
18882 1 41.617 16.6388 -9.82619 0.000509084 1 
18883 1 39.5262 18.5945 -9.92373 0.0003183 1 
18884 1 42.2453 19.4158 -9.52597 0.000281262 1 
18885 1 40.1569 21.3739 -9.62589 0.000392479 1 
18886 1 40.3684 19.6156 -7.38343 0.0020191 1 
18887 1 38.2783 21.5717 -7.48936 0.00187897 1 
18888 1 40.9997 22.3925 -7.0741 0.00432855 1 
18889 1 38.9135 24.354 -7.17731 0.00571284 1 
18890 1 39.1354 22.596 -4.95338 0.0395311 1 
18891 1 37.0322 24.5551 -5.06858 0.0306782 1 
18892 1 39.7556 25.3579 -4.58078 0.0317112 1 
18893 1 37.6577 27.3127 -4.6913 0.0404837 1 
18894 1 37.871 25.5204 -2.46938 0.175592 1 
18895 1 35.7662 27.5215 -2.57437 0.167199 1 
22026 1 17.9875 2.17523 -4.31068 0.0628381 1 
22050 1 1.29393 9.3116 -8.15864 0.0015253 1 
18908 1 48.2977 6.77072 -14.514 1.9505e-05 1 
18909 1 46.2086 8.72741 -14.612 1.56675e-05 1 
18910 1 48.925 9.54968 -14.2189 2.31902e-05 1 
18911 1 46.836 11.5066 -14.3176 1.58701e-05 1 
18912 1 47.0458 9.74732 -12.0704 7.23541e-05 1 
18913 1 44.9567 11.704 -12.1688 6.63841e-05 1 
18914 1 47.6731 12.5255 -11.7736 5.1869e-05 1 
18915 1 45.5851 14.4834 -11.8717 0.000120573 1 
18916 1 45.7962 12.7244 -9.62589 0.000392479 1 
18917 1 43.7081 14.6819 -9.72694 0.000636522 1 
18918 1 46.4237 15.5029 -9.32111 0.000862928 1 
18919 1 44.3348 17.4596 -9.42336 0.000454252 1 
18920 1 44.5528 15.7045 -7.17731 0.00571284 1 
18921 1 42.459 17.661 -7.27908 0.00459886 1 
18922 1 45.1691 18.4711 -6.86121 0.0036267 1 
18923 1 43.0836 20.4268 -6.97425 0.00284771 1 
18924 1 43.297 18.6632 -4.6913 0.0404837 1 
18925 1 41.2159 20.6299 -4.82732 0.0193987 1 
18926 1 43.9067 21.4271 -4.44025 0.0729645 1 
18927 1 41.8281 23.4002 -4.48307 0.048573 1 
22049 1 3.38784 7.35564 -8.06032 0.00172356 1 
22048 1 0.673906 6.5329 -8.44726 0.000825841 1 
22095 1 1.08336 3.02174 -3.92936 0.0818323 1 
22094 1 3.14735 1.08645 -3.8034 0.0762512 1 
18937 1 52.4753 2.85702 -14.3176 1.58701e-05 1 
18938 1 50.3866 4.814 -14.4157 2.01077e-05 1 
18939 1 53.1021 5.63568 -14.022 1.64448e-05 1 
18940 1 51.0137 7.59283 -14.1201 2.63759e-05 1 
18941 1 51.2244 5.83385 -11.8717 0.000120573 1 
18942 1 49.1354 7.7907 -11.9712 9.9707e-05 1 
18943 1 51.8503 8.61156 -11.5729 0.000122287 1 
18944 1 49.7621 10.5684 -11.6728 0.000106907 1 
18945 1 49.9741 8.8101 -9.42336 0.000454252 1 
18946 1 47.8846 10.7663 -9.52597 0.000281262 1 
18947 1 50.599 11.5849 -9.12038 0.000695558 1 
18948 1 48.5095 13.5423 -9.22639 0.000400659 1 
18949 1 48.7229 11.7772 -6.97425 0.00284771 1 
18950 1 46.639 13.743 -7.0741 0.00432855 1 
18951 1 49.338 14.558 -6.68187 0.00977724 1 
18952 1 47.2586 16.5188 -6.75195 0.00722772 1 
18953 1 47.4674 14.7507 -4.48307 0.048573 1 
18954 1 45.3949 16.7083 -4.58078 0.0317112 1 
22053 1 0.858344 13.2974 -3.27084 1.73025 5 
18956 1 45.9752 19.4743 -4.31068 0.0628381 1 
22093 1 2.96858 2.82658 -6.06791 0.0130844 1 
22025 1 20.1078 0.248687 -4.18939 0.0572243 1 
22092 1 5.04499 0.855239 -5.98513 0.0187398 1 
18962 1 54.5643 0.900138 -14.2189 2.31902e-05 1 
18963 1 57.279 1.72122 -13.8243 2.8197e-05 1 
18964 1 55.1905 3.67818 -13.9236 1.64246e-05 1 
18965 1 55.4014 1.91888 -11.6728 0.000106907 1 
18966 1 53.3124 3.87598 -11.7736 5.1869e-05 1 
18968 1 53.9378 6.65414 -11.4755 7.11113e-05 1 
18969 1 54.1488 4.89275 -9.22639 0.000400659 1 
18970 1 52.063 6.85339 -9.32111 0.000862928 1 
18973 1 52.8979 7.86921 -6.75195 0.00722772 1 
18974 1 50.8084 9.82154 -6.86121 0.0036267 1 
18977 1 51.6144 10.8248 -4.31068 0.0628381 1 
18978 1 49.546 12.7776 -4.44025 0.0729645 1 
22091 1 0.886288 4.77679 -6.17908 0.00725712 1 
22090 1 2.13339 1.80395 -8.62894 0.00114183 1 
18988 1 56.2382 2.93537 -9.12038 0.000695558 1 
18992 1 54.9772 5.90843 -6.68187 0.00977724 1 
22052 1 2.11839 10.3315 -5.64094 0.0141869 1 
19457 1 16.5511 31.5843 -14.022 1.64448e-05 1 
19458 1 14.4627 33.5415 -14.1201 2.63759e-05 1 
19459 1 17.1768 34.3625 -13.7261 2.86168e-05 1 
19460 1 15.2994 34.5602 -11.5729 0.000122287 1 
19499 1 20.728 27.6698 -13.8243 2.8197e-05 1 
19500 1 18.6395 29.6268 -13.9236 1.64246e-05 1 
19501 1 21.3533 30.4475 -13.5306 2.93578e-05 1 
19502 1 19.2649 32.4049 -13.6288 1.85282e-05 1 
19503 1 19.4749 30.644 -11.3777 0.000114535 1 
19504 1 17.3868 32.6028 -11.4755 7.11113e-05 1 
19505 1 20.0985 33.4228 -11.0843 7.80408e-05 1 
19506 1 18.2196 33.622 -8.92632 0.000787369 1 
19539 1 24.9042 23.7554 -13.6288 1.85282e-05 1 
19540 1 22.8161 25.713 -13.7261 2.86168e-05 1 
19541 1 25.5292 26.5339 -13.3355 3.53656e-05 1 
19542 1 23.4413 28.4908 -13.4321 4.01507e-05 1 
19543 1 23.6501 26.7314 -11.1785 0.00016177 1 
19544 1 21.5629 28.6872 -11.2764 0.000140619 1 
19545 1 24.2747 29.5087 -10.8872 0.000153685 1 
19546 1 22.1874 31.4648 -10.9868 0.000108657 1 
19547 1 22.3964 29.7051 -8.72773 0.000379487 1 
19548 1 20.3078 31.6605 -8.83385 0.00109128 1 
19549 1 23.0222 32.4815 -8.44726 0.000825841 1 
19550 1 20.9307 34.4425 -8.54233 0.000964878 1 
19551 1 21.1442 32.6814 -6.30625 0.0128515 1 
19552 1 41.6081 0.0545135 -6.38398 0.0104604 1 
19581 1 29.0806 19.8413 -13.4321 4.01507e-05 1 
19582 1 26.9926 21.798 -13.5306 2.93578e-05 1 
19583 1 29.7064 22.6197 -13.1409 2.70022e-05 1 
19584 1 27.6179 24.5766 -13.2386 1.94612e-05 1 
19585 1 27.8267 22.8152 -10.9868 0.000108657 1 
19586 1 25.7378 24.7733 -11.0843 7.80408e-05 1 
19587 1 28.4515 25.5943 -10.6976 6.17703e-05 1 
19588 1 26.3616 27.5518 -10.793 0.000210549 1 
19589 1 26.57 25.793 -8.54233 0.000964878 1 
19590 1 24.4817 27.7526 -8.62894 0.00114183 1 
19591 1 27.1909 28.5658 -8.25359 0.00350773 1 
19592 1 25.1079 30.5256 -8.3417 0.00154972 1 
19593 1 25.3169 28.7752 -6.06791 0.0130844 1 
19594 1 23.2346 30.7254 -6.17908 0.00725712 1 
19595 1 25.9268 31.544 -5.78735 0.0233254 1 
19596 1 23.856 33.4938 -5.90968 0.0176719 1 
19597 1 24.0416 31.7482 -3.56969 0.213903 1 