ITEM: TIMESTEP
0
ITEM: NUMBER OF ATOMS
8413
ITEM: BOX BOUNDS xy xz yz pp pp ss
0.0000000000000000e+00 9.6864734295000005e+01 3.0316443558000000e+01
0.0000000000000000e+00 7.0842206699000002e+01 0.0000000000000000e+00
-1.0387007343276515e+02 1.0814842173120191e+02 0.0000000000000000e+00
ITEM: ATOMS id type x y z c_csym c_cna 
1 1 6.11026 0.340772 -0.491949 5.65652 5 
2 1 2.41882 1.29702 -2.00913 1.76802 5 
3 1 0.996068 0.641076 -4.47062 0.0518679 1 
59953 3 51.6547 34.8669 -0.225702 9.06967 5 
5 1 66.7309 2.71577 -1.09469 1.82642 5 
6 1 17.2313 0.180066 -0.85212 7.58614 5 
7 1 12.0307 0.646304 -4.47791 0.0509836 1 
8 1 13.4747 1.3213 -2.16276 5.95366 5 
59952 3 56.0961 31.8662 0.47328 6.66197 5 
10 1 11.3141 2.83027 -1.31469 10.8293 5 
11 1 8.3491 1.53678 -5.83327 0.023356 1 
12 1 9.82128 2.16117 -3.51914 0.0791409 1 
13 1 7.26361 0.934499 -3.16488 0.20438 1 
14 1 8.8052 1.70792 -0.837746 5.67114 5 
15 1 7.69258 3.70867 -2.60526 2.66754 5 
16 1 5.41776 0.274165 -10.5844 0.000237969 1 
17 1 6.8868 0.909438 -8.208 0.00212395 1 
18 1 5.77912 0.336632 -5.59102 0.018864 1 
19 1 4.6774 2.43101 -7.23169 0.00401897 1 
20 1 6.15634 3.05753 -4.86433 0.0326651 1 
21 1 3.56221 1.848 -4.62799 0.0298887 1 
22 1 5.0429 2.47652 -2.26933 0.452135 1 
23 1 3.94196 4.59152 -3.96637 0.0904617 1 
24 1 5.37843 5.2389 -1.65111 6.27162 5 
25 1 2.81768 3.99333 -1.47846 6.33892 5 
26 1 1.72774 1.16049 -11.9873 0.000135743 1 
27 1 3.20456 1.79746 -9.61248 0.000497757 1 
28 1 0.620474 0.586028 -9.40954 0.000523835 1 
29 1 2.0984 1.21829 -7.02924 0.00282641 1 
30 1 67.5335 3.31844 -8.65051 0.000845064 1 
31 1 2.46023 3.95133 -6.29004 0.00595605 1 
32 1 66.4088 2.73407 -6.07357 0.00710074 1 
33 1 67.8695 3.35794 -3.72772 0.0421015 1 
34 1 66.7915 5.47062 -5.34274 0.00842074 1 
35 1 68.2624 6.08776 -2.97804 0.289158 1 
36 1 67.0245 5.62866 -0.458715 6.92262 5 
37 1 0.248461 0.522461 -14.3586 4.0761e-05 1 
38 1 28.3669 0.278695 -0.864742 8.96633 5 
39 1 24.7712 1.29238 -2.13624 3.97246 5 
40 1 23.1689 0.65598 -4.51838 0.036843 1 
59951 3 58.7409 30.6556 1.00016 12.4043 5 
42 1 20.9468 2.18295 -3.43391 1.69206 5 
43 1 22.6861 2.81406 -1.2246 10.2241 5 
44 1 17.9817 0.916988 -8.23338 0.00111088 1 
45 1 19.4591 1.56017 -5.86576 0.0122277 1 
46 1 16.8745 0.349514 -5.63185 0.0242887 1 
47 1 18.3713 0.988965 -3.23405 4.56205 5 
48 1 17.2484 3.06971 -4.89847 0.0381894 1 
49 1 18.7907 3.71137 -2.59849 6.98234 5 
50 1 16.1812 2.52047 -2.25533 4.75706 5 
51 1 16.6476 5.3057 -1.61532 5.2131 5 
52 1 16.5051 0.27982 -10.6033 0.00027281 1 
53 1 14.2855 1.80672 -9.63601 0.000748073 1 
54 1 15.7689 2.44129 -7.2729 0.00475328 1 
55 1 13.165 1.24013 -7.05698 0.00636887 1 
56 1 14.6511 1.89444 -4.69426 0.0528586 1 
57 1 13.5453 3.9831 -6.35331 0.0247288 1 
58 1 15.0506 4.61634 -4.01171 0.15151 1 
59 1 12.3935 3.39277 -3.87478 0.224495 1 
60 1 13.7933 3.97767 -1.62113 6.52806 5 
61 1 12.7737 6.13134 -3.09452 0.292266 1 
62 1 14.2516 6.49066 -0.829854 6.81213 5 
63 1 11.5255 5.63998 -0.363758 10.7926 5 
64 1 11.3318 0.528824 -14.3635 3.4819e-05 1 
65 1 12.8076 1.16833 -11.9981 0.000212592 1 
66 1 11.6898 0.598054 -9.41461 0.00166911 1 
67 1 10.5865 2.69525 -11.0277 0.000584523 1 
68 1 12.0616 3.33643 -8.68156 0.00319473 1 
69 1 9.46642 2.11946 -8.44405 0.0040858 1 
70 1 10.9289 2.75475 -6.12302 0.0243034 1 
71 1 9.84223 4.87105 -7.7101 0.00587737 1 
72 1 11.3028 5.52156 -5.37817 0.0326252 1 
73 1 8.73353 4.29579 -5.14902 0.0455194 1 
74 1 10.2136 4.92743 -2.80304 6.78694 5 
75 1 9.09715 7.04069 -4.30457 0.16848 1 
76 1 10.6355 7.61859 -1.97025 5.41443 5 
77 1 8.0353 6.26333 -1.54141 7.24732 5 
78 1 8.4502 8.99036 -1.20505 8.41505 5 
80 1 9.11283 2.05568 -13.3887 9.58391e-05 1 
81 1 6.52704 0.845855 -13.1719 7.46122e-05 1 
82 1 7.99934 1.48436 -10.804 0.000454003 1 
83 1 6.89681 3.58276 -12.4131 0.000151283 1 
84 1 8.36992 4.22413 -10.0528 0.000856983 1 
85 1 5.78588 3.00903 -9.82741 0.000652766 1 
86 1 7.25612 3.64609 -7.46854 0.00464038 1 
87 1 6.1607 5.75218 -9.0726 0.000530806 1 
88 1 7.63367 6.40029 -6.70724 0.00421388 1 
89 1 5.05824 5.17485 -6.49319 0.00794937 1 
90 1 6.53626 5.82327 -4.116 0.126889 1 
91 1 5.41136 7.91218 -5.71359 0.0247451 1 
92 1 6.89654 8.50488 -3.3839 0.236235 1 
93 1 4.27276 7.33501 -3.08448 0.422698 1 
94 1 5.87007 8.05706 -0.725137 5.92915 5 
95 1 4.81764 10.0296 -2.38341 3.33163 5 
96 1 70.0122 9.17944 -0.0935632 15.047 5 
101 1 5.42142 2.94237 -14.7801 3.19596e-05 1 
102 1 2.8355 1.73222 -14.5679 3.55625e-05 1 
103 1 4.31234 2.37128 -12.1974 0.000109384 1 
104 1 3.20661 4.46889 -13.8072 4.77958e-05 1 
105 1 4.68429 5.10954 -11.4386 0.000151244 1 
106 1 2.09774 3.89615 -11.2277 0.000180525 1 
107 1 3.57621 4.53418 -8.85869 0.000863432 1 
108 1 69.0198 6.63521 -10.4698 0.000257563 1 
109 1 3.95073 7.27669 -8.09973 0.00117065 1 
110 1 67.9083 6.05821 -7.90113 0.00123885 1 
111 1 69.3847 6.70462 -5.53243 0.0169738 1 
112 1 68.2874 8.80236 -7.13665 0.00518437 1 
113 1 69.7747 9.45201 -4.74102 0.0943709 1 
114 1 67.1382 8.20916 -4.60512 0.0307606 1 
115 1 68.5582 8.72811 -2.26562 0.709913 1 
116 1 67.5439 10.9614 -3.81184 0.266369 5 
117 1 69.2097 11.3869 -1.62121 5.94475 5 
118 1 66.3497 10.1544 -1.339 3.74835 5 
119 1 67.0821 12.6364 -0.945294 10.8163 5 
126 1 67.1676 3.25788 -13.5981 4.75355e-05 1 
127 1 67.5397 5.99466 -12.8379 7.36592e-05 1 
128 1 66.4283 5.41981 -10.2635 0.000271438 1 
129 1 66.8038 8.16064 -9.50846 0.000828173 1 
130 1 39.3689 0.361275 -0.490631 5.62894 5 
131 1 34.2669 0.66928 -4.45998 0.0529591 1 
132 1 35.6919 1.33017 -2.00202 1.85571 5 
59942 3 38.3144 33.3222 -0.674996 11.2728 5 
134 1 33.4641 2.72709 -1.08703 1.91941 5 
135 1 30.5584 1.55996 -5.86547 0.0145097 1 
136 1 32.0076 2.20171 -3.46357 0.244426 1 
137 1 29.5058 0.944974 -3.26567 0.262782 1 
138 1 29.7898 3.58344 -2.42488 0.66135 1 
139 1 27.609 0.278767 -10.6073 0.000167761 1 
140 1 29.0863 0.917054 -8.2344 0.000583558 1 
141 1 27.9851 0.341407 -5.64964 0.0135288 1 
142 1 26.8709 2.43919 -7.26609 0.00314972 1 
143 1 28.3394 3.05832 -4.87352 0.0322124 1 
144 1 25.7701 1.88369 -4.70989 0.0447524 1 
145 1 27.2119 2.49492 -2.30861 5.55077 5 
146 1 26.0855 4.6072 -3.81225 5.53524 5 
147 1 27.6172 5.13591 -1.35284 4.0362 5 
148 1 25.1853 6.31056 -0.931388 13.4213 5 
149 1 23.9079 1.16623 -12.0042 6.96909e-05 1 
150 1 25.3881 1.80461 -9.6385 0.000299101 1 
151 1 22.7922 0.596322 -9.43031 0.000409259 1 
152 1 24.273 1.23714 -7.07135 0.00346711 1 
153 1 23.1667 3.32774 -8.66575 0.00216293 1 
154 1 24.6525 3.96909 -6.30825 0.0361351 1 
155 1 22.0432 2.74389 -6.07267 0.0385174 1 
156 1 23.5575 3.36214 -3.76702 7.18215 5 
157 1 22.4018 5.46175 -5.37458 0.146723 1 
158 1 23.8071 6.06093 -3.12124 7.35904 5 
159 1 21.335 4.88581 -2.60061 5.27972 5 
160 1 21.9894 7.53504 -1.69917 6.55479 5 
161 1 22.4288 0.52747 -14.3689 2.0135e-05 1 
162 1 20.2093 2.05475 -13.3979 4.16435e-05 1 
163 1 21.6886 2.69245 -11.0336 0.000181706 1 
164 1 19.096 1.48524 -10.8187 0.000197335 1 
165 1 20.5736 2.12132 -8.45392 0.00163522 1 
166 1 19.4709 4.22015 -10.0681 0.000464442 1 
167 1 20.9518 4.85218 -7.71654 0.00803642 1 
168 1 18.3615 3.65374 -7.48592 0.00331658 1 
169 1 19.8584 4.29513 -5.13083 0.0633737 1 
170 1 18.758 6.40376 -6.74591 0.0215241 1 
171 1 20.3025 7.02933 -4.38075 0.370509 1 
172 1 17.6147 5.82051 -4.25427 0.227865 1 
173 1 19.0866 6.43861 -2.0434 8.91762 5 
174 1 18.0122 8.59686 -3.34723 5.88853 5 
175 1 19.7746 9.02663 -1.11283 7.46572 5 
179 1 17.6185 0.847738 -13.1844 5.26567e-05 1 
180 1 16.5114 2.94424 -14.7918 2.04928e-05 1 
181 1 17.9908 3.58306 -12.4288 6.638e-05 1 
182 1 15.3995 2.37599 -12.214 0.00010448 1 
183 1 16.8801 3.01428 -9.85095 0.00045878 1 
184 1 15.7733 5.11427 -11.4621 0.000273836 1 
185 1 17.2597 5.75585 -9.10475 0.00164897 1 
186 1 14.6618 4.54627 -8.8978 0.00227459 1 
187 1 16.1483 5.1839 -6.5567 0.0130579 1 
188 1 15.0374 7.29011 -8.14181 0.000859617 1 
189 1 16.5301 7.94031 -5.79283 0.0292647 1 
190 1 13.9375 6.72201 -5.5799 0.0206866 1 
191 1 15.4499 7.34766 -3.19393 5.45684 5 
192 1 14.272 9.44083 -4.83888 0.12791 1 
193 1 15.7068 10.0912 -2.62277 7.08361 5 
194 1 13.2569 8.80425 -2.16938 1.81746 5 
195 1 13.6365 11.5869 -1.13808 8.58767 5 
200 1 13.9212 1.73673 -14.5778 3.37174e-05 1 
202 1 14.2923 4.47368 -13.8216 6.16727e-05 1 
203 1 11.7016 3.26509 -13.606 9.11576e-05 1 
204 1 13.1796 3.90583 -11.2484 0.000419145 1 
205 1 12.0729 6.00455 -12.8493 0.000154608 1 
206 1 13.5522 6.64741 -10.4929 0.000415765 1 
207 1 10.9594 5.43856 -10.2766 0.000768897 1 
208 1 12.4374 6.08455 -7.92718 0.00295602 1 
209 1 11.3312 8.1809 -9.50845 0.000966335 1 
210 1 12.8091 8.82203 -7.16201 0.00706591 1 
211 1 10.2157 7.61772 -6.92102 0.00866689 1 
212 1 11.7098 8.26189 -4.57621 0.0450494 1 
213 1 10.6215 10.3715 -6.13815 0.0223852 1 
214 1 12.1598 11.0181 -3.74274 0.247131 1 
215 1 9.5234 9.77986 -3.62647 0.217868 1 
216 1 11.1159 10.2558 -1.31758 6.78822 5 
217 1 9.97516 12.5257 -2.69916 1.24208 5 
218 1 8.94621 11.5167 -0.253066 9.55167 5 
228 1 8.00775 4.15255 -14.9946 3.8824e-05 1 
229 1 9.48352 4.79443 -12.6319 0.000173774 1 
230 1 8.37912 6.89158 -14.2334 5.84676e-05 1 
231 1 9.85567 7.53605 -11.8696 0.000197191 1 
232 1 7.26956 6.32389 -11.6533 0.000186187 1 
233 1 8.74467 6.97106 -9.29001 0.000765868 1 
234 1 7.64462 9.06603 -10.884 0.000350153 1 
235 1 9.12772 9.71531 -8.51345 0.00225967 1 
236 1 6.53523 8.49584 -8.30223 0.00174876 1 
237 1 8.01993 9.14101 -5.94779 0.0206778 1 
238 1 6.92947 11.2428 -7.52347 0.00746857 1 
239 1 8.41565 11.8933 -5.10049 0.0517339 1 
240 1 5.84371 10.6585 -4.96728 0.0561304 1 
241 1 7.30952 11.2713 -2.54198 6.88145 5 
242 1 6.20767 13.4127 -4.08483 0.237433 1 
243 1 7.7131 13.8591 -1.51813 4.45419 5 
244 1 71.6292 12.7586 -1.48319 6.2474 5 
245 1 71.8946 15.4563 -1.08749 9.99988 5 
257 1 5.79291 5.68048 -14.0192 4.93237e-05 1 
259 1 6.16603 8.42018 -13.255 9.23309e-05 1 
260 1 3.57967 7.20752 -13.0457 8.45423e-05 1 
261 1 5.059 7.85112 -10.6756 0.000250073 1 
262 1 70.5026 9.94692 -12.2801 0.000174396 1 
263 1 5.43782 10.5922 -9.90356 0.000681639 1 
264 1 69.3962 9.3765 -9.70509 0.000391681 1 
265 1 4.3331 10.0185 -7.32758 0.0030514 1 
266 1 69.7757 12.1162 -8.93723 0.00211459 1 
267 1 71.2762 12.7629 -6.55279 0.0243876 1 
268 1 68.6677 11.5378 -6.37902 0.00778115 1 
269 1 70.2052 12.1771 -4.02615 0.20321 1 
270 1 69.0351 14.2869 -5.65318 0.0605655 1 
271 1 70.4622 14.8911 -3.26861 0.267652 1 
272 1 67.9541 13.7397 -3.19352 1.34272 5 
273 1 69.1627 14.4445 -0.628241 8.3391 5 
274 1 68.2853 16.452 -2.23937 5.73845 5 
289 1 69.0211 9.30362 -14.6522 5.47774e-05 1 
290 1 66.4323 8.09215 -14.4458 3.94187e-05 1 
291 1 67.9138 8.7336 -12.077 0.000138947 1 
292 1 66.8051 10.8298 -13.6838 5.6983e-05 1 
293 1 68.288 11.4723 -11.3128 0.000289019 1 
294 1 67.1776 10.9001 -8.7467 0.000584657 1 
295 1 67.5478 13.6418 -7.99455 0.00664205 1 
296 1 66.432 13.0764 -5.4672 0.0805955 1 
297 1 66.7711 15.8244 -4.58079 0.307666 1 
304 1 50.4872 0.182506 -0.850888 7.53825 5 
305 1 46.7323 1.32485 -2.16039 5.93837 5 
306 1 45.2877 0.654971 -4.47218 0.0499129 1 
59941 3 41.1462 34.446 -0.191444 7.94872 5 
308 1 43.0742 2.17831 -3.51061 0.083172 1 
309 1 44.5735 2.84012 -1.31296 10.8144 5 
310 1 42.0607 1.73421 -0.826534 5.51086 5 
311 1 40.1505 0.922583 -8.19895 0.00210846 1 
312 1 41.6066 1.55351 -5.82397 0.0231606 1 
313 1 39.0416 0.35642 -5.58177 0.0192048 1 
314 1 40.5204 0.956644 -3.15638 0.209056 1 
315 1 39.407 3.0863 -4.85227 0.0347207 1 
316 1 40.9424 3.73537 -2.5989 2.61508 5 
317 1 38.2935 2.51645 -2.26403 0.418887 1 
318 1 38.6159 5.29267 -1.64051 6.29622 5 
319 1 38.6863 0.284259 -10.5766 0.000227386 1 
320 1 36.4727 1.81233 -9.60154 0.000394712 1 
321 1 37.9396 2.45135 -7.22 0.00319299 1 
322 1 35.3653 1.24155 -7.01655 0.00292158 1 
323 1 36.8259 1.87959 -4.61769 0.0235012 1 
324 1 35.7211 3.98124 -6.27051 0.00570844 1 
325 1 37.1774 4.64808 -3.94138 0.0883317 1 
326 1 34.592 3.40013 -3.70863 0.0510769 1 
327 1 36.0744 4.05548 -1.45785 3.54036 5 
328 1 34.9374 6.1901 -2.92259 0.395005 1 
329 1 33.7353 5.72302 -0.451995 7.33009 5 
330 1 33.5246 0.530252 -14.3535 3.77468e-05 1 
331 1 35.0007 1.17114 -11.9791 0.00011272 1 
332 1 33.8933 0.602262 -9.39934 0.000496617 1 
333 1 32.7838 2.69805 -11.0102 0.000112461 1 
334 1 34.2533 3.33872 -8.63282 0.000989931 1 
335 1 31.6716 2.12965 -8.43464 0.000891077 1 
336 1 33.1273 2.7688 -6.04977 0.0106408 1 
337 1 32.0318 4.8637 -7.65685 0.00495002 1 
338 1 33.5109 5.51659 -5.30501 0.0166309 1 
339 1 30.8993 4.29932 -5.0498 0.0893618 1 
340 1 32.4289 4.95085 -2.75835 0.469836 1 
341 1 31.3071 7.05151 -4.36531 0.3343 1 
342 1 32.5355 7.90448 -1.74008 7.07126 5 
343 1 30.1865 6.31043 -1.97674 11.3736 5 
344 1 29.6648 8.74583 -0.860958 10.077 5 
346 1 31.3077 2.05722 -13.3841 3.2111e-05 1 
347 1 28.7194 0.848258 -13.1798 3.90274e-05 1 
348 1 30.1978 1.48817 -10.8083 7.64408e-05 1 
349 1 29.0905 3.58324 -12.4152 6.32467e-05 1 
350 1 30.5658 4.22346 -10.0395 0.000308372 1 
351 1 27.9804 3.01276 -9.83886 0.000321214 1 
352 1 29.4521 3.65313 -7.45647 0.0031396 1 
353 1 28.3487 5.74412 -9.06733 0.00225342 1 
354 1 29.8131 6.38489 -6.69434 0.0102784 1 
355 1 27.2241 5.15731 -6.47107 0.0325772 1 
356 1 28.6551 5.75857 -4.11888 0.211118 1 
357 1 27.6081 7.90522 -5.74983 0.0459345 1 
358 1 29.0321 8.54056 -3.45433 6.01275 5 
359 1 26.5681 7.30425 -3.08779 3.05775 5 
360 1 27.0364 9.84453 -1.62859 12.5651 5 
365 1 27.6109 2.94373 -14.7862 1.83912e-05 1 
366 1 25.0203 1.73549 -14.5788 1.9405e-05 1 
367 1 26.5006 2.3745 -12.2111 6.29998e-05 1 
368 1 25.393 4.47033 -13.8179 3.28312e-05 1 
369 1 26.8744 5.10834 -11.4481 0.000256661 1 
370 1 24.282 3.89997 -11.2429 0.00015795 1 
371 1 25.7641 4.53625 -8.8742 0.0025098 1 
372 1 24.6594 6.63436 -10.4856 0.000128602 1 
373 1 26.1427 7.26781 -8.11489 0.00305941 1 
374 1 23.5499 6.06444 -7.91606 0.00448486 1 
375 1 25.0435 6.69563 -5.54635 0.0846857 1 
376 1 23.9471 8.79844 -7.14518 0.00827469 1 
377 1 25.4679 9.42551 -4.76818 0.703995 5 
378 1 22.8385 8.21088 -4.59984 0.286292 1 
379 1 24.3778 8.82221 -2.35229 7.38582 5 
380 1 23.2396 10.9373 -3.77091 0.195085 1 
381 1 24.7149 11.4815 -1.36759 2.78049 5 
389 1 22.8012 3.26243 -13.6095 3.57873e-05 1 
391 1 23.1757 5.99771 -12.8519 5.44773e-05 1 
392 1 20.5829 4.79038 -12.642 5.57772e-05 1 
393 1 22.0665 5.4277 -10.2807 0.000396206 1 
394 1 20.9586 7.52736 -11.8859 9.82441e-05 1 
395 1 22.4481 8.16494 -9.52312 0.000980848 1 
396 1 19.8509 6.95961 -9.31808 0.0011352 1 
397 1 21.3425 7.59779 -6.96859 0.0196549 1 
398 1 20.2311 9.69447 -8.55287 0.00383249 1 
399 1 21.7471 10.3202 -6.19852 0.0263981 1 
400 1 19.1392 9.12556 -5.95024 0.0781541 1 
401 1 20.7487 9.69603 -3.57718 0.387294 1 
402 1 19.569 11.8432 -5.27905 0.091654 1 
403 1 21.0878 12.4158 -2.82625 0.276265 1 
404 1 18.5456 11.2902 -2.83326 0.879036 5 
405 1 18.8903 13.9562 -1.8615 1.49617 5 
416 1 19.4747 6.88853 -14.2476 3.31135e-05 1 
417 1 16.8832 5.68135 -14.0353 4.14407e-05 1 
418 1 18.3654 6.3211 -11.6753 0.000143426 1 
419 1 17.2553 8.41937 -13.2772 5.074e-05 1 
420 1 18.7406 9.05914 -10.9173 0.000174863 1 
421 1 16.1471 7.85437 -10.7053 0.000233167 1 
422 1 17.6393 8.49633 -8.34545 0.00341115 1 
423 1 16.5181 10.5927 -9.9496 0.00107923 1 
424 1 18.0173 11.229 -7.60615 0.0126402 1 
425 1 15.4053 10.0317 -7.38905 0.00721716 1 
426 1 16.912 10.6818 -5.08192 0.111004 1 
427 1 15.7761 12.7749 -6.62683 0.0200305 1 
428 1 17.3413 13.4254 -4.35786 0.203258 1 
429 1 14.6534 12.2144 -4.06002 0.336107 1 
430 1 15.076 14.9701 -3.26626 0.398077 1 
431 1 16.7909 15.4569 -0.960489 5.85598 5 
446 1 14.6638 7.21254 -13.0638 8.97283e-05 1 
447 1 13.5546 9.30904 -14.6634 6.74267e-05 1 
448 1 15.0341 9.95134 -12.3036 0.000223842 1 
449 1 12.4436 8.74457 -12.0865 0.000229588 1 
450 1 13.9228 9.38824 -9.73167 0.000941871 1 
451 1 12.8138 11.4843 -11.319 0.000534166 1 
452 1 14.2923 12.1298 -8.9644 0.00214726 1 
453 1 11.7063 10.9246 -8.73429 0.00252683 1 
454 1 13.1852 11.573 -6.3831 0.0202989 1 
455 1 12.0756 13.664 -7.94379 0.00404061 1 
456 1 13.5532 14.315 -5.57402 0.0329597 1 
457 1 10.9957 13.1077 -5.31458 0.0208008 1 
458 1 12.5292 13.7418 -2.88103 1.07533 5 
459 1 11.3563 15.8354 -4.49681 0.134133 1 
460 1 12.7363 16.4818 -1.91942 7.23874 5 
461 1 10.1472 15.2779 -1.96702 4.40267 5 
462 1 10.1784 18.204 -1.22854 6.60636 5 
478 1 10.9662 8.10112 -14.4483 6.71693e-05 1 
480 1 11.3369 10.8397 -13.6825 0.000117075 1 
481 1 8.75124 9.631 -13.4673 9.28708e-05 1 
482 1 10.2291 10.2767 -11.0994 0.000355361 1 
483 1 9.12375 12.369 -12.6964 0.000210881 1 
484 1 10.6006 13.0149 -10.3196 0.00100394 1 
485 1 8.02286 11.8063 -10.1072 0.00109854 1 
486 1 9.5046 12.4557 -7.71275 0.00475648 1 
487 1 8.39586 14.5402 -9.32216 0.00330918 1 
488 1 9.87309 15.1867 -6.91207 0.0206432 1 
489 1 7.29664 13.9715 -6.72382 0.011499 1 
490 1 8.75806 14.5995 -4.30508 0.140357 1 
491 1 7.6565 16.7146 -5.97929 0.0211561 1 
492 1 9.07855 17.3791 -3.59905 0.332905 1 
493 1 73.0916 16.14 -3.44819 0.522887 1 
494 1 7.88095 16.6152 -0.982368 10.7301 5 
495 1 73.5176 18.9196 -2.40014 2.9622 5 
496 1 71.9395 18.106 0.0417358 9.66864 5 
518 1 5.05974 10.5147 -14.8595 6.43531e-05 1 
519 1 6.54038 11.1591 -12.4856 0.000214772 1 
520 1 71.9804 13.2514 -14.0925 0.000136591 1 
521 1 6.91397 13.8957 -11.7136 0.000625035 1 
522 1 70.877 12.6847 -11.5123 0.000320673 1 
523 1 5.81448 13.3304 -9.13042 0.00195575 1 
524 1 71.2471 15.4211 -10.7457 0.000409266 1 
525 1 72.7302 16.0644 -8.36217 0.00185055 1 
526 1 70.1419 14.8569 -8.17988 0.00573887 1 
527 1 71.6212 15.4966 -5.80125 0.0335159 1 
528 1 70.513 17.594 -7.38902 0.010455 1 
529 1 71.9935 18.2444 -4.96241 0.111925 1 
530 1 69.3874 17.0191 -4.84766 0.0375232 1 
531 1 70.8226 17.6671 -2.47331 6.65128 5 
532 1 69.7306 19.7732 -4.04112 0.0728232 1 
533 1 71.1385 20.3667 -1.67852 0.983264 5 
534 1 68.6328 19.1355 -1.3074 8.40845 5 
535 1 68.8686 21.9499 -0.958424 11.3082 5 
559 1 69.3939 12.041 -13.8877 8.67272e-05 1 
561 1 69.765 14.7774 -13.1228 0.000108417 1 
562 1 67.1765 13.5671 -12.9211 8.26896e-05 1 
563 1 68.6588 14.2105 -10.5506 0.000713368 1 
564 1 67.5462 16.3036 -12.1549 0.000184054 1 
565 1 69.026 16.9468 -9.77431 0.00151372 1 
566 1 66.4357 15.7373 -9.58268 0.001037 1 
567 1 67.9027 16.3798 -7.19733 0.014871 1 
568 1 66.8011 18.4697 -8.81621 0.000536442 1 
569 1 68.2807 19.118 -6.45083 0.00789973 1 
570 1 67.1968 18.552 -3.9056 0.190984 1 
571 1 67.4662 21.2455 -3.13355 0.327137 1 
572 1 65.9243 20.619 -0.535107 9.10214 5 
595 1 61.6405 0.287589 -0.86219 8.61591 5 
596 1 56.4384 0.655765 -4.5112 0.0391563 1 
597 1 58.0511 1.29258 -2.1178 3.6585 5 
59940 3 44.4481 30.5115 1.32852 7.12398 5 
599 1 55.975 2.84412 -1.21768 10.2306 5 
600 1 52.7245 1.56042 -5.8594 0.013217 1 
601 1 54.2157 2.18097 -3.42234 1.69902 5 
602 1 51.6315 0.990511 -3.23202 4.55725 5 
603 1 52.0518 3.70965 -2.5972 7.03633 5 
604 1 49.7694 0.279554 -10.597 0.000274851 1 
605 1 51.2452 0.916863 -8.22727 0.00109313 1 
606 1 50.1352 0.351743 -5.62717 0.0234675 1 
607 1 49.0302 2.44368 -7.2665 0.00435805 1 
608 1 50.5104 3.07213 -4.8944 0.0342734 1 
609 1 47.9099 1.89944 -4.6885 0.0533636 1 
610 1 49.4411 2.52175 -2.25173 4.75204 5 
611 1 48.3112 4.62041 -4.00562 0.149544 1 
612 1 49.9058 5.30498 -1.60496 5.05291 5 
613 1 47.0556 3.98031 -1.61796 6.53609 5 
614 1 47.5151 6.49312 -0.82398 6.8395 5 
615 1 46.0735 1.17045 -11.9913 0.000206419 1 
616 1 47.5486 1.80913 -9.62907 0.000716086 1 
617 1 44.9532 0.603093 -9.40746 0.00158927 1 
618 1 46.4251 1.24561 -7.05014 0.00616664 1 
619 1 45.3229 3.34227 -8.67301 0.00318114 1 
620 1 46.8039 3.98881 -6.34531 0.0253138 1 
621 1 44.1855 2.76552 -6.11399 0.0249971 1 
622 1 45.649 3.40283 -3.86818 0.230162 1 
623 1 44.5565 5.53235 -5.36588 0.0347847 1 
624 1 46.0304 6.13767 -3.08539 0.287085 1 
625 1 43.4618 4.94465 -2.78728 6.84791 5 
626 1 44.7968 5.64524 -0.357172 10.8158 5 
627 1 43.8872 7.62416 -1.95777 5.37266 5 
628 1 44.6006 0.530462 -14.3573 3.58129e-05 1 
629 1 42.3812 2.05991 -13.3817 0.000102287 1 
630 1 43.8514 2.70045 -11.0197 0.0005821 1 
631 1 41.2655 1.49223 -10.7958 0.000454463 1 
632 1 42.728 2.12922 -8.43505 0.00405075 1 
633 1 41.6335 4.23308 -10.0427 0.000802355 1 
634 1 43.101 4.88156 -7.69882 0.00580651 1 
635 1 40.5149 3.66222 -7.45639 0.00432648 1 
636 1 41.9854 4.31626 -5.13648 0.0488766 1 
637 1 40.8889 6.41687 -6.69259 0.00486588 1 
638 1 42.3404 7.06037 -4.28458 0.188707 1 
639 1 39.7764 5.85651 -4.09985 0.137451 1 
640 1 41.2619 6.29131 -1.53088 7.33151 5 
641 1 40.1164 8.53811 -3.35654 0.271495 1 
642 1 41.6984 8.99816 -1.20262 8.51149 5 
643 1 39.0635 8.14046 -0.700508 5.14157 5 
647 1 39.797 0.851899 -13.1651 7.80513e-05 1 
648 1 38.6927 2.94779 -14.7733 3.50702e-05 1 
649 1 40.1647 3.58984 -12.4046 0.000146953 1 
650 1 37.5822 2.38043 -12.1887 9.84388e-05 1 
651 1 39.051 3.02139 -9.81685 0.000575128 1 
652 1 37.9515 5.11959 -11.4276 0.000102202 1 
653 1 39.4223 5.76554 -9.05957 0.000396143 1 
654 1 36.8398 4.55169 -8.8435 0.00054681 1 
655 1 38.3125 5.19881 -6.4758 0.00715662 1 
656 1 37.2097 7.29557 -8.08307 0.0011154 1 
657 1 38.6622 7.9369 -5.69497 0.0300903 1 
658 1 36.0885 6.73994 -5.50809 0.0171969 1 
659 1 37.4914 7.40492 -3.05096 0.501087 1 
660 1 36.4751 9.48282 -4.73757 0.065268 1 
661 1 37.9979 10.113 -2.37539 2.56926 5 
662 1 35.2009 8.84511 -2.2417 1.8031 1 
663 1 36.6223 9.33584 -0.112772 14.7167 5 
664 1 35.8688 11.6853 -1.63551 9.41924 5 
669 1 36.1089 1.73902 -14.5616 3.35352e-05 1 
671 1 36.478 4.4763 -13.7985 4.19963e-05 1 
672 1 33.8936 3.26657 -13.5896 4.01442e-05 1 
673 1 35.3676 3.90833 -11.2153 0.000138199 1 
674 1 34.2635 6.00354 -12.8263 6.32708e-05 1 
675 1 35.7382 6.64787 -10.4548 0.000119805 1 
676 1 33.1509 5.43421 -10.2445 0.000380449 1 
677 1 34.623 6.08082 -7.87749 0.000925972 1 
678 1 33.5242 8.17515 -9.48709 0.000545271 1 
679 1 34.9911 8.82352 -7.10484 0.00574037 1 
680 1 32.4058 7.60875 -6.92091 0.00946816 1 
681 1 33.8306 8.25572 -4.53518 0.175236 1 
682 1 32.7705 10.3496 -6.13234 0.0221493 1 
683 1 34.2679 10.9957 -3.79339 0.363722 1 
684 1 31.6473 9.79362 -3.49494 1.48828 5 
685 1 33.4859 10.6962 -0.942533 7.47264 5 
686 1 32.0949 12.4858 -2.9417 6.50073 5 
687 1 31.198 12.1265 -0.496399 11.7714 5 
697 1 30.1997 4.15242 -14.9923 1.99691e-05 1 
698 1 31.6775 4.79299 -12.6196 5.47128e-05 1 
699 1 30.5712 6.88812 -14.23 3.09862e-05 1 
700 1 32.0489 7.52946 -11.8579 8.23388e-05 1 
701 1 29.4615 6.31775 -11.6511 0.000181057 1 
702 1 30.9352 6.9583 -9.27887 0.00067024 1 
703 1 29.8351 9.05476 -10.8924 0.000208965 1 
704 1 31.3072 9.70116 -8.51914 0.00103257 1 
705 1 28.7275 8.48432 -8.31422 0.00214289 1 
706 1 30.2025 9.13703 -5.93919 0.0259607 1 
707 1 29.0884 11.2189 -7.53568 0.0123593 1 
708 1 30.5571 11.8639 -5.18203 0.0514075 1 
709 1 27.9748 10.6531 -4.91846 0.658298 5 
710 1 29.4544 11.1998 -2.49282 2.36823 5 
711 1 28.3748 13.3739 -4.24092 0.130368 1 
712 1 29.8338 14.0517 -1.93402 6.36742 5 
713 1 27.3021 12.7443 -1.77661 7.87308 5 
725 1 27.9832 5.67879 -14.0242 3.93285e-05 1 
727 1 28.3559 8.41437 -13.2637 4.77295e-05 1 
728 1 25.767 7.20545 -13.0583 4.30596e-05 1 
729 1 27.2494 7.84313 -10.6877 0.000282827 1 
730 1 26.141 9.94143 -12.2992 6.56846e-05 1 
731 1 27.6243 10.5816 -9.92971 0.00128571 1 
732 1 25.037 9.36906 -9.72707 0.000540295 1 
733 1 26.5208 10.0121 -7.36402 0.0157864 1 
734 1 25.411 12.1078 -8.96787 0.000648162 1 
735 1 26.8891 12.7471 -6.59793 0.0187879 1 
736 1 24.3126 11.5258 -6.38819 0.0110171 1 
737 1 25.7929 12.1082 -3.99084 0.679217 5 
738 1 24.71 14.2506 -5.6051 0.0259479 1 
739 1 26.1785 14.9066 -3.22741 0.389835 1 
740 1 23.6285 13.6771 -3.05448 0.0770969 1 
741 1 25.0627 14.368 -0.719181 6.28898 5 
742 1 23.9139 16.4294 -2.16854 5.98653 5 
757 1 24.6572 9.30289 -14.6664 2.39455e-05 1 
758 1 22.0662 8.09552 -14.4581 2.62243e-05 1 
759 1 23.5508 8.73348 -12.094 7.62185e-05 1 
760 1 22.4391 10.8318 -13.6992 3.49962e-05 1 
761 1 23.9261 11.4695 -11.3357 0.000208277 1 
762 1 21.3339 10.263 -11.1273 0.000137843 1 
763 1 22.8291 10.8964 -8.76663 0.0017884 1 
764 1 21.7119 12.9993 -10.37 0.00065029 1 
765 1 23.2085 13.6329 -7.99807 0.0023517 1 
766 1 20.6235 12.4289 -7.81102 0.00618148 1 
767 1 22.1316 13.0511 -5.42636 0.0113768 1 
768 1 20.9943 15.1573 -7.03883 0.00304717 1 
769 1 22.4962 15.7883 -4.67921 0.0393555 1 
770 1 19.9264 14.5529 -4.45978 0.064108 1 
771 1 21.4235 15.194 -2.16878 1.74505 5 
772 1 20.2541 17.3129 -3.75569 0.0721212 1 
773 1 21.6542 17.9062 -1.45447 6.57574 5 
793 1 19.8473 9.62544 -13.4892 4.09055e-05 1 
795 1 20.2201 12.362 -12.7306 0.000141994 1 
796 1 17.6267 11.1569 -12.5185 0.000189057 1 
797 1 19.1164 11.7953 -10.1629 0.000960274 1 
798 1 17.9976 13.8936 -11.7581 0.000361651 1 
799 1 19.4912 14.531 -9.40456 0.00137944 1 
800 1 16.8899 13.3305 -9.1895 0.00239569 1 
801 1 18.4045 13.9638 -6.85496 0.0171541 1 
802 1 17.2621 16.0649 -8.42699 0.00378997 1 
803 1 18.7777 16.6864 -6.08776 0.0113256 1 
804 1 16.1613 15.5087 -5.85778 0.0221935 1 
805 1 17.7274 16.1227 -3.52895 0.0958581 1 
806 1 16.5677 18.233 -5.12143 0.0255747 1 
807 1 18.1197 18.8967 -2.817 0.216414 1 
808 1 15.4985 17.6376 -2.60195 0.500977 1 
809 1 15.9136 20.433 -1.76563 0.678242 5 
830 1 16.1444 10.5161 -14.878 6.09701e-05 1 
832 1 16.5139 13.2531 -14.1161 0.000120646 1 
833 1 13.9241 12.0469 -13.8993 0.000138854 1 
834 1 15.4036 12.6896 -11.5402 0.000493177 1 
835 1 14.2929 14.7832 -13.1328 0.000228536 1 
836 1 15.7724 15.425 -10.7735 0.000814985 1 
837 1 13.1824 14.2211 -10.5452 0.000895255 1 
838 1 14.6603 14.8648 -8.18663 0.0040189 1 
839 1 13.5523 16.9533 -9.77452 0.00113568 1 
840 1 15.0302 17.5931 -7.41479 0.0167985 1 
841 1 12.4424 16.3915 -7.16438 0.00664835 1 
842 1 13.9099 17.0289 -4.79102 0.17479 1 
843 1 12.8194 19.1188 -6.41431 0.0247153 1 
844 1 14.368 19.7721 -4.14133 0.093326 1 
845 1 11.7124 18.5539 -3.74193 0.578261 1 
846 1 12.175 21.3121 -3.17391 0.255682 1 
873 1 11.7066 13.5767 -12.9125 0.000238207 1 
874 1 10.5997 15.6683 -14.5148 0.000118627 1 
875 1 12.0759 16.3108 -12.1425 0.000449559 1 
876 1 9.49431 15.1036 -11.9232 0.000515855 1 
877 1 10.969 15.7472 -9.54079 0.00243918 1 
878 1 9.86336 17.8361 -11.1571 0.000377447 1 
879 1 11.3391 18.4787 -8.78022 0.00169733 1 
880 1 8.76335 17.2722 -8.55673 0.00276071 1 
881 1 10.2392 17.9184 -6.15949 0.0199082 1 
882 1 9.12091 20.0011 -7.79634 0.0068758 1 
883 1 10.6166 20.6468 -5.45373 0.0454615 1 
884 1 74.5414 19.4547 -5.18776 0.0969312 1 
885 1 9.4962 20.2091 -2.91466 1.40469 5 
886 1 74.937 22.2148 -4.48006 0.0874025 1 
887 1 9.9018 22.8077 -1.94389 5.42368 5 
888 1 73.6959 21.7285 -1.93038 4.24178 5 
889 1 74.2482 24.3717 -1.25663 11.2185 5 
917 1 8.01624 14.4604 -14.3013 0.000125835 1 
919 1 8.38583 17.1943 -13.5348 0.000138595 1 
920 1 72.3508 15.9864 -13.3259 0.00014845 1 
921 1 7.28336 16.6287 -10.9445 0.000552345 1 
922 1 72.7187 18.7192 -12.5609 0.000169385 1 
923 1 74.1966 19.3601 -10.1802 0.000601908 1 
924 1 71.6132 18.1536 -9.97572 0.000393866 1 
925 1 73.0875 18.7985 -7.58699 0.0032914 1 
926 1 71.9774 20.8854 -9.2139 0.000712851 1 
927 1 73.4538 21.5341 -6.83624 0.00423542 1 
928 1 70.8661 20.3194 -6.62301 0.00593057 1 
929 1 72.3384 20.9535 -4.2382 0.111029 1 
930 1 71.2271 23.0516 -5.88797 0.00708878 1 
931 1 72.677 23.7274 -3.51553 0.126838 1 
932 1 70.1339 22.523 -3.32631 0.233668 1 
933 1 71.5417 23.0929 -0.779338 10.9639 5 
934 1 70.4293 25.216 -2.45411 1.26871 5 
966 1 71.2393 18.0784 -14.9377 6.42543e-05 1 
967 1 68.653 16.8703 -14.7321 4.50352e-05 1 
968 1 70.1332 17.5117 -12.3559 0.000128264 1 
969 1 69.021 19.6043 -13.9697 5.38169e-05 1 
970 1 70.5003 20.2446 -11.5943 0.000153709 1 
971 1 67.9132 19.0369 -11.3913 0.000121499 1 
972 1 69.3926 19.679 -9.01507 0.000882506 1 
973 1 68.278 21.7708 -10.633 0.000120054 1 
974 1 69.7532 22.4101 -8.25731 0.000689901 1 
975 1 67.1645 21.2068 -8.05943 0.000903011 1 
976 1 68.6341 21.8522 -5.67957 0.0102197 1 
977 1 67.5263 23.9401 -7.30375 0.00149471 1 
978 1 68.9879 24.5879 -4.92453 0.0218172 1 
979 1 66.3974 23.3679 -4.74411 0.0293194 1 
980 1 67.8105 24.041 -2.41055 5.33377 5 
981 1 66.7427 26.1305 -3.96966 0.0953366 1 
982 1 68.1196 26.7303 -1.63846 1.43675 5 
1015 1 66.4337 18.3964 -13.7648 3.46059e-05 1 
1016 1 66.8005 21.1308 -13.0052 3.71037e-05 1 
1033 1 65.2783 2.16124 -3.48432 0.213237 1 
1034 1 62.3531 0.899532 -8.24444 0.000724625 1 
1035 1 63.8287 1.53054 -5.88312 0.0122164 1 
1036 1 61.2521 0.327259 -5.65508 0.0113809 1 
1037 1 62.773 0.933623 -3.27407 0.228452 1 
1038 1 61.6126 3.03956 -4.88749 0.0215878 1 
1039 1 63.0695 3.58855 -2.46242 0.482992 1 
1040 1 60.4926 2.49548 -2.30103 5.52644 5 
1041 1 60.9479 5.1381 -1.37984 2.72985 5 
1042 1 60.8746 0.267328 -10.6113 0.000140133 1 
1043 1 58.6528 1.79478 -9.6397 0.000282961 1 
1044 1 60.1368 2.42412 -7.2715 0.0027966 1 
1045 1 57.5397 1.23004 -7.06739 0.00330209 1 
1046 1 59.043 1.8731 -4.7028 0.0372294 1 
1047 1 57.9227 3.9571 -6.30438 0.0291024 1 
1048 1 59.3774 4.58548 -3.81952 6.13512 5 
1049 1 56.8391 3.35703 -3.76117 7.19118 5 
1050 1 57.1199 6.02582 -3.00957 6.31606 5 
1051 1 58.6451 6.40051 -0.84652 13.7011 5 
1052 1 55.6952 0.522205 -14.3657 2.29713e-05 1 
1053 1 57.1731 1.15942 -12.0028 5.93407e-05 1 
1054 1 56.0568 0.591044 -9.42656 0.000390893 1 
1055 1 54.954 2.68764 -11.0293 0.000163782 1 
1056 1 56.4323 3.32021 -8.66112 0.00192383 1 
1057 1 53.8394 2.11917 -8.44729 0.00145594 1 
1058 1 55.3129 2.74305 -6.06326 0.0350218 1 
1059 1 54.2212 4.84789 -7.70374 0.00387588 1 
1060 1 55.6841 5.45637 -5.33306 0.060468 1 
1061 1 53.1263 4.29067 -5.12754 0.0573326 1 
1062 1 54.5989 4.86877 -2.60492 5.3227 5 
1063 1 53.537 7.01428 -4.38723 0.195352 1 
1064 1 55.1078 7.52655 -1.88029 2.80829 5 
1065 1 52.3407 6.4295 -2.00714 7.94126 5 
1066 1 53.0247 9.05117 -1.08106 6.94214 5 
1068 1 53.4757 2.05117 -13.3933 3.90993e-05 1 
1069 1 50.8848 0.845818 -13.1786 5.33022e-05 1 
1070 1 52.3611 1.48315 -10.8129 0.000185905 1 
1071 1 51.2572 3.58121 -12.423 6.3646e-05 1 
1072 1 52.7369 4.21739 -10.0613 0.000291422 1 
1073 1 50.144 3.01374 -9.84483 0.000403446 1 