ITEM: TIMESTEP
0
ITEM: NUMBER OF ATOMS
7502
ITEM: BOX BOUNDS xy xz yz pp pp ss
-3.164255459 85.53078393200001 -3.164255459
0 49.251992217 0
-104.1108949159494 108.8473642016572 0
ITEM: ATOMS id type x y z c_csym c_cna 
38725 2 0.0160174 4.31436 1.56907 4.26668 5 
38721 2 1.46645 2.53178 0.0179311 6.9952 5 
37233 2 11.6712 1.26306 2.1256 6.94281 5 
13729 1 82.0904 49.1561 -14.0666 8.14741e-05 1 
15131 1 -2.29296 42.234 -14.0974 9.32272e-05 1 
15135 1 79.5974 43.9947 -13.9753 7.86291e-05 1 
15139 1 75.9612 45.7507 -13.8566 7.74368e-05 1 
15143 1 72.3262 47.5054 -13.7473 0.000121611 1 
15146 1 -1.04525 44.8136 -14.1451 7.55315e-05 1 
15147 1 -0.950908 44.8301 -11.2868 0.000349335 1 
15148 1 82.0869 44.4128 -12.6305 0.00018585 1 
15149 1 -2.1953 46.9936 -12.6749 0.00015343 1 
15150 1 80.844 46.5765 -14.0229 7.88056e-05 1 
15151 1 80.9373 46.5923 -11.1606 0.000294109 1 
15152 1 78.4483 46.1702 -12.5071 0.000146551 1 
15153 1 79.6945 48.7538 -12.5509 0.000173376 1 
15154 1 77.2063 48.3339 -13.9031 7.48677e-05 1 
15155 1 77.3011 48.3455 -11.0372 0.000363669 1 
15156 1 74.8144 47.9234 -12.3902 0.000157035 1 
15157 1 -2.0999 47.0144 -9.81544 0.00093504 1 
15158 1 82.1849 49.1735 -11.2005 0.000391047 1 
15159 1 82.2797 49.1992 -8.33583 0.0024612 1 
15160 1 79.7887 48.7722 -9.68535 0.00087431 1 
37222 2 4.95751 7.06295 1.3022 6.44359 5 
16503 1 -1.14197 35.3148 -14.1154 7.14255e-05 1 
16507 1 80.7464 37.0769 -13.9923 0.000171439 1 
16511 1 77.1098 38.8337 -13.8733 0.000149144 1 
16515 1 73.474 40.5885 -13.7621 0.000158622 1 
16519 1 69.8353 42.3438 -13.66 0.000122428 1 
16523 1 66.1892 44.1024 -13.559 0.000126092 1 
16524 1 63.6899 43.6945 -14.9095 5.60564e-05 1 
16525 1 64.9392 46.2724 -14.956 7.30765e-05 1 
16527 1 62.537 45.8655 -13.4492 8.09722e-05 1 
16528 1 60.0383 45.4605 -14.7912 4.51968e-05 1 
16529 1 61.2877 48.0371 -14.8415 5.95695e-05 1 
16531 1 58.8847 47.6326 -13.3271 0.000100613 1 
16532 1 56.3885 47.2296 -14.6639 7.07385e-05 1 
16533 1 52.7435 49.0001 -14.5316 0.000114458 1 
16534 1 -2.29581 37.4916 -12.647 0.000201572 1 
16535 1 -1.04882 40.0685 -12.7025 0.000230224 1 
16536 1 81.9912 39.6548 -14.0444 9.40595e-05 1 
16537 1 82.0813 39.668 -11.1777 0.000525885 1 
16538 1 79.5956 39.2505 -12.521 0.000223803 1 
16539 1 80.8398 41.8305 -12.5779 0.000154006 1 
16540 1 78.3526 41.4134 -13.9232 8.59487e-05 1 
16541 1 78.4445 41.4228 -11.0528 0.00027911 1 
16542 1 75.9603 41.0052 -12.4024 0.000316323 1 
16543 1 77.2027 43.5863 -12.4553 0.000160696 1 
16544 1 74.7172 43.1688 -13.8067 0.000195647 1 
16545 1 74.8119 43.1747 -10.9303 0.00105987 1 
16546 1 72.3272 42.7577 -12.2949 0.000408301 1 
16547 1 73.5706 45.3388 -12.3408 0.000361661 1 
16548 1 71.0814 44.9236 -13.7024 0.00016267 1 
16549 1 71.1814 44.9254 -10.834 0.00063268 1 
16550 1 68.6871 44.513 -12.2011 0.000213559 1 
16551 1 69.9337 47.0936 -12.2438 0.000207995 1 
16552 1 67.4377 46.6818 -13.6032 0.00011675 1 
16553 1 67.5365 46.6822 -10.7472 0.000254621 1 
16554 1 65.0371 46.2723 -12.1026 0.000184877 1 
16555 1 66.2876 48.8524 -12.1472 0.000212055 1 
16556 1 63.7875 48.4435 -13.4979 0.00014236 1 
16557 1 63.8841 48.4422 -10.6494 0.000527188 1 
16558 1 61.3837 48.0361 -11.9896 8.51701e-05 1 
16559 1 -0.9581 40.0836 -9.84859 0.00207238 1 
16560 1 -2.20128 42.2487 -11.2389 0.000454971 1 
16561 1 -2.11221 42.2662 -8.38763 0.00242915 1 
16562 1 80.9299 41.8431 -9.71418 0.000646801 1 
16563 1 82.1786 44.43 -9.77379 0.000670204 1 
16564 1 79.6891 44.0065 -11.1119 0.000316359 1 
16565 1 79.7802 44.0196 -8.25361 0.00140086 1 
16566 1 77.2932 43.5943 -9.58549 0.000844984 1 
16567 1 78.5409 46.1825 -9.6445 0.000656826 1 
16568 1 76.0549 45.7583 -10.9881 0.000339471 1 
16569 1 76.1457 45.7637 -8.11879 0.00208454 1 
16570 1 73.6671 45.3411 -9.46309 0.00225145 1 
16571 1 74.9101 47.9299 -9.52338 0.000792192 1 
16572 1 72.425 47.5085 -10.8806 0.000537971 1 
16573 1 72.5243 47.5068 -8.0115 0.00414534 1 
16574 1 70.0329 47.0939 -9.38262 0.000725574 1 
16575 1 66.3848 48.8515 -9.2969 0.000561218 1 
16576 1 -0.856616 44.8523 -8.43762 0.0024001 1 
16577 1 -0.764549 44.8836 -5.61309 0.0228911 1 
16578 1 82.27 44.449 -6.92507 0.0025506 1 
16579 1 -2.00223 47.0454 -6.96675 0.00840916 1 
16580 1 81.0312 46.613 -8.30296 0.000974146 1 
16581 1 81.1272 46.6333 -5.45463 0.00638061 1 
16582 1 78.6354 46.1938 -6.79003 0.00297191 1 
16583 1 79.8854 48.798 -6.82348 0.00666826 1 
16584 1 77.3963 48.3584 -8.17652 0.00287676 1 
16585 1 77.4926 48.3735 -5.33872 0.0330817 1 
16586 1 75.0048 47.9315 -6.65826 0.00556458 1 
16587 1 -1.90825 47.1016 -4.14635 0.0789457 1 
16588 1 -3.15097 49.2405 -5.47677 0.0175731 1 
16589 1 80.0132 48.8178 -3.97363 0.0657387 1 
37218 2 6.47005 3.5488 0.166692 10.8837 5 
17846 1 0.00824808 28.3957 -14.1465 8.50323e-05 1 
17850 1 81.8965 30.1589 -14.0256 8.60623e-05 1 
17854 1 78.2584 31.9168 -13.9055 8.0676e-05 1 
17858 1 74.6228 33.672 -13.7912 9.36055e-05 1 
17862 1 70.9847 35.4276 -13.6843 0.000100855 1 
17866 1 67.3401 37.1858 -13.5804 0.000111365 1 
17867 1 64.841 36.7756 -14.9336 0.000101355 1 
17868 1 66.0908 39.3542 -14.9755 6.97705e-05 1 
17870 1 63.6901 38.9469 -13.4725 0.000165258 1 
17871 1 61.1897 38.5397 -14.817 9.6826e-05 1 
17872 1 62.4404 41.1174 -14.8635 5.86647e-05 1 
17874 1 60.0375 40.7118 -13.3539 0.000121881 1 
17875 1 57.54 40.3067 -14.6922 0.000107762 1 
17876 1 58.7894 42.8841 -14.742 3.74337e-05 1 
17878 1 56.3887 42.4807 -13.2257 0.000127698 1 
17879 1 53.8948 42.0766 -14.5635 7.42043e-05 1 
17880 1 55.1418 44.6539 -14.6137 5.08918e-05 1 
17882 1 52.7444 44.2536 -13.0939 0.000135844 1 
17883 1 50.2523 43.8491 -14.4361 7.02939e-05 1 
17884 1 51.4979 46.4255 -14.4827 8.9163e-05 1 
17886 1 49.1028 46.0284 -12.9639 0.000119117 1 
17887 1 46.6102 45.6219 -14.3112 6.71624e-05 1 
17888 1 47.8566 48.1969 -14.3556 7.76661e-05 1 
17890 1 45.4611 47.8015 -12.8373 0.00021599 1 
17891 1 42.9678 47.3913 -14.1884 6.28954e-05 1 
17892 1 39.325 49.1561 -14.0666 8.14741e-05 1 
17893 1 -1.1431 30.5757 -12.678 0.000167771 1 
17894 1 83.1429 32.7386 -14.0696 8.45699e-05 1 
17895 1 83.2354 32.7561 -11.2054 0.000408262 1 
17896 1 80.7459 32.3366 -12.5545 0.000184063 1 
17897 1 81.9904 34.9158 -12.5958 0.000314463 1 
17898 1 79.5028 34.4986 -13.9473 0.000131218 1 
17899 1 79.5961 34.5134 -11.0758 0.00065998 1 
17900 1 77.1104 34.0914 -12.4339 0.000155274 1 
17901 1 78.3531 36.6722 -12.4707 0.0005446 1 
17902 1 75.8667 36.254 -13.8303 0.000101552 1 
17903 1 75.9632 36.2638 -10.9566 0.000412238 1 
17904 1 73.4761 35.8439 -12.3203 0.000313567 1 
17905 1 74.719 38.4252 -12.3595 0.000137397 1 
17906 1 72.2299 38.0083 -13.7224 8.53875e-05 1 
17907 1 72.3289 38.0133 -10.854 0.0002271 1 
17908 1 69.8362 37.5986 -12.2197 0.000113339 1 
17909 1 71.0821 40.1781 -12.2568 0.000136646 1 
17910 1 68.5881 39.7649 -13.6184 0.000102083 1 
17911 1 68.687 39.7674 -10.7536 0.000439188 1 
17912 1 66.1907 39.3559 -12.1176 0.000246222 1 
17913 1 67.4392 41.9336 -12.1581 0.000191107 1 
17914 1 64.9404 41.5245 -13.5142 0.000100666 1 
17915 1 65.0397 41.5238 -10.6578 0.000529462 1 
17916 1 62.5379 41.1176 -12.0112 0.000173079 1 
17917 1 63.7873 43.6942 -12.0561 0.000185162 1 
17918 1 61.2875 43.2889 -13.4005 4.88492e-05 1 
17919 1 61.3829 43.2871 -10.5467 0.000253175 1 
17920 1 58.8851 42.884 -11.8873 0.000107317 1 
17921 1 60.1337 45.4595 -11.9365 0.000159125 1 
17922 1 57.6368 45.0572 -13.2742 7.29572e-05 1 
17923 1 57.7335 45.0553 -10.4148 0.000774108 1 
17924 1 55.2378 44.656 -11.7551 0.000179704 1 
17925 1 56.4828 47.2306 -11.8056 0.000272229 1 
17926 1 53.9896 46.8293 -13.1412 0.000163148 1 
17927 1 54.0849 46.8321 -10.2767 0.000786527 1 
17928 1 51.5945 46.4321 -11.6169 0.000476978 1 
17929 1 52.8385 49.0042 -11.6633 0.000537623 1 
17930 1 50.3486 48.6019 -13.0065 0.000432516 1 
17931 1 50.4481 48.6089 -10.1289 0.00376396 1 
17932 1 47.9547 48.2081 -11.487 0.000434163 1 
17933 1 -1.04971 35.3298 -11.2505 0.000324039 1 
17934 1 -0.960556 35.3489 -8.38717 0.00332141 1 
17935 1 82.0803 34.9354 -9.72268 0.00202476 1 
17936 1 -2.20694 37.5083 -9.78251 0.00107393 1 
17937 1 80.8372 37.0908 -11.1187 0.000883624 1 
17938 1 80.9266 37.1099 -8.23355 0.00470937 1 
17939 1 78.4476 36.6856 -9.58641 0.0037441 1 
17940 1 79.6874 39.2623 -9.64411 0.000887005 1 
17941 1 77.2045 38.8432 -10.9975 0.000536961 1 
17942 1 77.3002 38.8521 -8.11448 0.00318852 1 
17943 1 74.816 38.4332 -9.48436 0.000459751 1 
17944 1 76.0534 41.0132 -9.52281 0.00144451 1 
17945 1 73.5712 40.5946 -10.8871 0.000680973 1 
17946 1 73.6687 40.6011 -8.00181 0.00533995 1 
17947 1 71.1794 40.1819 -9.38989 0.00113515 1 
17948 1 72.4257 42.7606 -9.41583 0.00225304 1 
17949 1 69.9346 42.3464 -10.7951 0.000408564 1 
17950 1 70.0294 42.3497 -7.93119 0.00396656 1 
17951 1 67.5374 41.9325 -9.29654 0.00100626 1 
17952 1 68.7866 44.5139 -9.34051 0.000841214 1 
17953 1 66.2879 44.1019 -10.7051 0.00058637 1 
17954 1 66.3831 44.1001 -7.86222 0.00769614 1 
17955 1 63.8815 43.6918 -9.20816 0.00163873 1 
17956 1 65.1317 46.2709 -9.25325 0.000645979 1 
17957 1 62.6318 45.8639 -10.5978 0.000282777 1 
17958 1 62.7208 45.8618 -7.74807 0.00245095 1 
17959 1 60.229 45.4532 -9.08035 0.00134987 1 
17960 1 61.4788 48.0319 -9.13834 0.000569658 1 
17961 1 58.9801 47.6296 -10.4751 0.000438974 1 
17962 1 59.0783 47.6204 -7.63271 0.00767879 1 
17963 1 56.5774 47.2281 -8.95037 0.00237843 1 
17964 1 52.9355 49.0057 -8.78577 0.00319195 1 
17965 1 -2.11642 37.5273 -6.92231 0.0131069 1 
17966 1 -0.860932 40.1031 -7.01375 0.0212139 1 
17967 1 82.1689 39.6844 -8.30679 0.00427864 1 
17968 1 82.2705 39.6974 -5.45173 1.33421 5 
17969 1 79.7772 39.2757 -6.75564 0.0156518 1 
17970 1 81.0167 41.8592 -6.85091 0.00724189 1 
17971 1 78.5353 41.4314 -8.18068 0.00118858 1 
17972 1 78.6319 41.4397 -5.30879 0.0282012 1 
17973 1 76.1453 41.0182 -6.63314 0.00844957 1 
17974 1 77.3849 43.6004 -6.71927 0.00434592 1 
17975 1 74.9037 43.1791 -8.03957 0.00660218 1 
17976 1 75.0001 43.173 -5.13378 0.0584451 1 
17977 1 72.5225 42.7619 -6.51939 0.0152345 1 
17978 1 73.7606 45.3362 -6.5667 0.0165651 1 
17979 1 71.2809 44.9244 -7.95929 0.0030431 1 
17980 1 71.3695 44.926 -5.07531 0.0153829 1 
17981 1 68.8809 44.5145 -6.47783 0.00841912 1 
17982 1 70.1278 47.0934 -6.52682 0.00508363 1 
17983 1 67.6316 46.681 -7.89355 0.0010534 1 
17984 1 67.7141 46.6638 -5.041 0.0367688 1 
17985 1 65.2164 46.2741 -6.40721 0.00896886 1 
17986 1 66.4782 48.8469 -6.4514 0.00436331 1 
17987 1 63.9755 48.44 -7.80863 0.00465135 1 
17988 1 64.0484 48.4467 -4.99073 0.0624441 1 
17989 1 61.5708 48.0214 -6.27372 0.0234322 1 
17990 1 -0.820736 40.1447 -4.18104 1.46964 5 
17991 1 -2.02751 42.2804 -5.54957 0.0266848 1 
17992 1 -2.01097 42.3459 -2.69987 1.92044 5 
17993 1 81.1502 41.8355 -3.96078 2.4192 5 
17994 1 82.3718 44.4747 -4.0834 0.0693063 1 
17995 1 79.876 44.0216 -5.40638 0.025727 1 
17996 1 80.0397 44.0918 -2.6287 3.68341 5 
17997 1 77.4539 43.6058 -3.86685 0.224009 1 
17998 1 78.7224 46.2037 -3.95442 0.0766912 1 
17999 1 76.2347 45.7668 -5.25308 0.0106629 1 
18000 1 76.3215 45.7678 -2.37312 0.49048 1 
18001 1 73.8633 45.305 -3.64395 0.220333 1 
18002 1 75.0865 47.9138 -3.78507 0.0544205 1 
18003 1 72.6299 47.4889 -5.1344 0.0503906 1 
18004 1 72.745 47.416 -2.19149 1.07521 1 
18005 1 70.2059 47.1115 -3.6942 0.146864 1 
18006 1 66.5689 48.8436 -3.63213 2.91974 5 
18007 1 -0.688945 44.9101 -2.8485 0.30699 1 
18008 1 82.3696 44.5906 -1.11622 5.85729 5 
18009 1 -1.85425 47.11 -1.35653 6.33999 5 
18010 1 81.2639 46.6795 -2.62386 0.345931 1 
18011 1 78.9935 46.28 -1.14844 6.14038 5 
18012 1 80.2199 48.7921 -1.07489 6.14545 5 
18013 1 77.5828 48.3771 -2.5757 0.524806 1 
18014 1 75.1178 47.8607 -0.869024 4.4653 5 
19158 1 83.0456 23.2366 -14.0448 9.41079e-05 1 
19162 1 79.4063 24.9953 -13.9245 8.96335e-05 1 
19166 1 75.7704 26.7511 -13.8081 0.000198585 1 
19170 1 72.1343 28.5064 -13.7033 0.000162985 1 
19174 1 68.4903 30.2647 -13.6028 0.000117087 1 
19175 1 65.9917 29.8553 -14.9547 7.59554e-05 1 
19178 1 64.8395 32.0261 -13.4959 0.000147495 1 
19179 1 62.3397 31.6194 -14.8386 7.29496e-05 1 
19180 1 63.5903 34.197 -14.8881 0.000103545 1 
19182 1 61.1862 33.7903 -13.3769 0.000163605 1 
19183 1 58.6881 33.3862 -14.7122 0.000144707 1 
19184 1 59.9384 35.9621 -14.7664 0.00012582 1 
19186 1 57.5344 35.5575 -13.2452 0.000423805 1 
19187 1 55.0422 35.1544 -14.5779 0.000237603 1 
19188 1 56.2904 37.7296 -14.637 0.000134121 1 
19190 1 53.8927 37.326 -13.1096 0.000258298 1 
19191 1 51.4027 36.9235 -14.4519 0.000116527 1 
19192 1 52.6483 39.4991 -14.5088 8.52869e-05 1 
19194 1 50.2534 39.0989 -12.9878 0.00015641 1 
19195 1 47.7611 38.6955 -14.3341 7.12524e-05 1 
19196 1 49.0066 41.2718 -14.3863 7.13503e-05 1 
19198 1 46.61 40.8749 -12.8709 0.000112148 1 
19199 1 44.1166 40.4669 -14.2174 5.41151e-05 1 
19200 1 45.3635 43.0446 -14.2659 6.07894e-05 1 
19202 1 42.9651 42.6474 -12.753 0.000118664 1 
19203 1 40.4724 42.234 -14.0974 9.32272e-05 1 
19204 1 41.7201 44.8136 -14.1451 7.55315e-05 1 
19206 1 39.3215 44.4128 -12.6305 0.00018585 1 
19207 1 36.832 43.9947 -13.9753 7.86291e-05 1 
19208 1 38.0786 46.5765 -14.0229 7.88056e-05 1 
19210 1 35.6829 46.1702 -12.5071 0.000146551 1 
19211 1 33.1958 45.7507 -13.8566 7.74368e-05 1 
19212 1 34.4409 48.3339 -13.9031 7.48677e-05 1 
19214 1 32.049 47.9234 -12.3902 0.000157035 1 
19215 1 29.5608 47.5054 -13.7473 0.000121611 1 
19216 1 0.00537474 23.6505 -12.7026 0.000241593 1 
19217 1 -1.23919 25.816 -14.0984 9.98447e-05 1 
19218 1 -1.1484 25.8302 -11.2405 0.000468149 1 
19219 1 81.8931 25.4122 -12.5794 0.000161641 1 
19220 1 83.1394 27.9947 -12.633 0.000199023 1 
19221 1 80.6504 27.5767 -13.9772 8.53074e-05 1 
19222 1 80.7409 27.5881 -11.1147 0.000332005 1 
19223 1 78.2554 27.1683 -12.4572 0.000172211 1 
19224 1 79.5002 29.7525 -12.5099 0.000157768 1 
19225 1 77.0137 29.3332 -13.8585 8.33318e-05 1 
19226 1 77.1066 29.3406 -10.9905 0.000355546 1 
19227 1 74.6231 28.9214 -12.3424 0.000367648 1 
19228 1 75.8662 31.5063 -12.3922 0.000165978 1 
19229 1 73.3786 31.0883 -13.7484 0.000123757 1 
19230 1 73.4772 31.0914 -10.8821 0.000549478 1 
19231 1 70.9863 30.6766 -12.2444 0.000211281 1 
19232 1 72.2314 33.2603 -12.2861 0.000222863 1 
19233 1 69.7379 32.8457 -13.6454 0.000112275 1 
19234 1 69.837 32.848 -10.7882 0.000306131 1 
19235 1 67.3397 32.4353 -12.1462 0.000212393 1 
19236 1 68.5893 35.0174 -12.1847 0.000161084 1 
19237 1 66.0905 34.6056 -13.5409 0.000167285 1 
19238 1 66.1897 34.6059 -10.6911 0.000566002 1 
19239 1 63.6872 34.1966 -12.0384 0.000280092 1 
19240 1 64.9397 36.7766 -12.0822 0.00035255 1 
19241 1 62.438 36.3682 -13.4276 0.000167019 1 
19242 1 62.5344 36.3665 -10.5805 0.000350875 1 
19243 1 60.0326 35.9602 -11.9149 0.000313173 1 
19244 1 61.286 38.5389 -11.967 0.000254241 1 
19245 1 58.786 38.1336 -13.3029 0.000243067 1 
19246 1 58.8805 38.1288 -10.4537 0.000972178 1 
19247 1 56.3831 37.7281 -11.7779 0.000552691 1 
19248 1 57.6345 40.3054 -11.8395 0.000547377 1 
19249 1 55.1399 39.9025 -13.1711 0.000179914 1 
19250 1 55.2344 39.8985 -10.312 0.000874662 1 
19251 1 52.7447 39.499 -11.6452 0.00036367 1 
19252 1 53.9909 42.0776 -11.7057 0.000330832 1 
19253 1 51.4987 41.6755 -13.0435 0.000161506 1 
19254 1 51.5968 41.6762 -10.1852 0.000885965 1 
19255 1 49.1032 41.2784 -11.5257 0.000266382 1 
19256 1 50.3494 43.8557 -11.576 0.000370987 1 
19257 1 47.8563 43.4521 -12.9198 0.000142688 1 
19258 1 47.9526 43.4639 -10.0624 0.000704905 1 
19259 1 45.459 43.0581 -11.4069 0.000194297 1 
19260 1 46.7071 45.6356 -11.4486 0.00034454 1 
19261 1 44.2134 45.226 -12.7974 0.000136177 1 
19262 1 44.31 45.245 -9.93893 0.000755083 1 
19263 1 41.8145 44.8301 -11.2868 0.000349335 1 
19264 1 43.0647 47.408 -11.3234 0.000341349 1 
19265 1 40.5701 46.9936 -12.6749 0.00015343 1 
19266 1 40.6655 47.0144 -9.81544 0.00093504 1 
19267 1 38.1719 46.5923 -11.1606 0.000294109 1 
19268 1 39.4195 49.1735 -11.2005 0.000391047 1 
19269 1 36.9292 48.7538 -12.5509 0.000173376 1 
19270 1 37.0233 48.7722 -9.68535 0.00087431 1 
19271 1 34.5357 48.3455 -11.0372 0.000363669 1 
19272 1 83.2294 28.0113 -9.77745 0.000682193 1 
19273 1 -1.05026 30.5962 -9.82068 0.000948664 1 
19274 1 81.9881 30.1744 -11.1646 0.000309371 1 
19275 1 82.0793 30.1944 -8.30852 0.000996206 1 
19276 1 79.5912 29.7645 -9.64814 0.00066683 1 
19277 1 80.8379 32.3548 -9.69024 0.000914226 1 
19278 1 78.352 31.9283 -11.0404 0.000376719 1 
19279 1 78.446 31.941 -8.18004 0.00284303 1 
19280 1 75.9614 31.5127 -9.52571 0.00080891 1 
19281 1 77.2068 34.104 -9.56559 0.00111872 1 
19282 1 74.7202 33.6797 -10.9248 0.00053557 1 
19283 1 74.8189 33.6873 -8.06205 0.00589131 1 
19284 1 72.33 33.2637 -9.42656 0.00186447 1 
19285 1 73.5752 35.8506 -9.44408 0.00324077 1 
19286 1 71.0844 35.4324 -10.8212 0.000332287 1 
19287 1 71.1813 35.4385 -7.95864 0.00354425 1 
19288 1 68.6887 35.0204 -9.32795 0.000461693 1 
19289 1 69.934 37.6034 -9.3558 0.000361167 1 
19290 1 67.4398 37.1883 -10.7236 0.000349972 1 
19291 1 67.5389 37.1907 -7.86661 0.00315877 1 
19292 1 65.0377 36.7758 -9.23781 0.00221925 1 
19293 1 66.2905 39.3567 -9.2558 0.0020649 1 
19294 1 63.7889 38.9469 -10.6232 0.000830063 1 
19295 1 63.8858 38.9461 -7.78293 0.00814618 1 
19296 1 61.3832 38.5344 -9.12256 0.000652886 1 
19297 1 62.6359 41.1164 -9.16208 0.000998805 1 
19298 1 60.1339 40.7096 -10.5053 0.000517815 1 
19299 1 60.2351 40.7016 -7.66474 0.00480474 1 
19300 1 57.7298 40.2978 -8.99607 0.00491729 1 
19301 1 58.9826 42.8803 -9.03191 0.00122395 1 
19302 1 56.4854 42.4791 -10.3729 0.000800252 1 
19303 1 56.5857 42.4722 -7.53014 0.0088441 1 
19304 1 54.0904 42.0726 -8.85244 0.00206148 1 
19305 1 55.3382 44.6553 -8.89827 0.00123541 1 
19306 1 52.8427 44.2567 -10.2352 0.000791966 1 
19307 1 52.9504 44.2549 -7.38269 0.00830053 1 
19308 1 50.4499 43.8604 -8.7235 0.00339586 1 
19309 1 51.695 46.4384 -8.74618 0.00350064 1 
19310 1 49.202 46.0394 -10.1005 0.000699571 1 
19311 1 49.3058 46.0545 -7.24318 0.00607153 1 
19312 1 46.8054 45.6557 -8.58891 0.00221644 1 
19313 1 48.056 48.2233 -8.61521 0.0038355 1 
19314 1 45.5598 47.8187 -9.96562 0.00173846 1 
19315 1 45.6626 47.8421 -7.07877 0.0171706 1 
19316 1 43.1647 47.4329 -8.45579 0.00243222 1 
19317 1 39.5143 49.1992 -8.33583 0.0024612 1 
19318 1 -0.957714 30.6262 -6.97464 0.00781646 1 
19319 1 83.3268 32.7816 -8.34296 0.00249415 1 
19320 1 -2.10822 32.8218 -5.48549 0.0181655 1 
19321 1 80.9323 32.3802 -6.82918 0.00694887 1 
19322 1 82.1663 34.9645 -6.83601 0.0142898 1 
19323 1 79.6908 34.5348 -8.19626 0.0043017 1 
19324 1 79.7932 34.5663 -5.29756 0.0383953 1 
19325 1 77.3077 34.1209 -6.70476 0.0123567 1 
19326 1 78.5467 36.7044 -6.67717 0.0279399 1 
19327 1 76.0603 36.2749 -8.07627 0.00411357 1 
19328 1 76.1533 36.2891 -5.18907 0.0513732 1 
19329 1 73.6737 35.8536 -6.54778 0.048806 1 
19330 1 74.9149 38.4402 -6.60929 0.00746384 1 
19331 1 72.4275 38.0163 -7.98634 0.00265538 1 
19332 1 72.515 38.012 -5.13731 0.0628466 1 
19333 1 70.0239 37.6093 -6.49091 0.0110873 1 
19334 1 71.2732 40.1875 -6.53594 0.0232969 1 
19335 1 68.7803 39.7699 -7.88004 0.00458792 1 
19336 1 68.8528 39.7737 -5.00047 0.196175 1 
19337 1 66.3867 39.3538 -6.37761 0.0287807 1 
19338 1 67.6263 41.9276 -6.43014 0.0098979 1 
19339 1 65.138 41.5196 -7.79614 0.0061401 1 
19340 1 65.2324 41.5078 -4.91342 0.115459 1 
19341 1 62.7342 41.115 -6.31324 0.0140634 1 
19342 1 63.9671 43.6886 -6.37665 0.0212799 1 
19343 1 61.4759 43.2813 -7.6885 0.00349192 1 
19344 1 61.5641 43.27 -4.81929 0.129544 1 
19345 1 59.0872 42.8648 -6.16985 0.0198929 1 
19346 1 60.3274 45.4367 -6.21403 0.0139779 1 
19347 1 57.8359 45.0482 -7.54458 0.0131889 1 
19348 1 57.9598 45.0197 -4.65322 0.307215 1 
19349 1 55.4503 44.6517 -6.0441 0.017439 1 
19350 1 56.669 47.2285 -6.10985 0.0341825 1 
19351 1 54.1824 46.8314 -7.408 0.00502248 1 
19352 1 54.2951 46.8236 -4.53091 0.0578454 1 
19353 1 51.8075 46.436 -5.86491 0.0341789 1 
19354 1 53.0432 48.9972 -5.8886 0.0219482 1 
19355 1 50.5566 48.6149 -7.22845 0.0361486 1 
19356 1 50.6808 48.608 -4.28799 0.77672 5 
19357 1 48.1644 48.2474 -5.74431 0.0364911 1 
19358 1 -0.889204 35.4001 -5.52595 0.0256787 1 
19359 1 -0.803457 35.4124 -2.69707 0.38546 1 
19360 1 82.2513 35.0042 -3.92908 0.121584 1 
19361 1 -2.0542 37.6036 -4.01659 1.06652 5 
19362 1 81.0259 37.1417 -5.32816 0.0237034 1 
19363 1 81.1125 37.239 -2.4095 6.42759 5 
19364 1 78.6534 36.7322 -3.73214 0.303657 1 
19365 1 79.9543 39.3108 -3.83019 3.07718 5 
19366 1 77.41 38.8717 -5.22136 0.0283657 1 
19367 1 77.5659 38.8797 -2.34928 2.7181 5 
19368 1 75.0033 38.4508 -3.76178 0.197496 1 
19369 1 76.2241 41.0309 -3.71758 0.13547 1 
19370 1 73.7564 40.5992 -5.09741 0.0668803 1 
19371 1 73.8004 40.6911 -2.11261 6.30363 5 
19372 1 71.3215 40.2241 -3.72227 0.582111 1 
19373 1 72.6254 42.7607 -3.62035 2.08955 5 
19374 1 70.1092 42.3636 -5.08141 0.034353 1 
19375 1 70.1893 42.3773 -2.22904 6.93459 5 
19376 1 67.7082 41.9402 -3.56719 2.94802 5 
19377 1 68.9803 44.5369 -3.59301 0.133569 1 
19378 1 66.4537 44.0974 -5.06114 0.133549 1 
19379 1 66.5157 44.2218 -2.36512 6.4019 5 
19380 1 64.0192 43.6792 -3.56704 0.419298 1 
19381 1 65.2641 46.2978 -3.54933 0.194697 1 
19382 1 62.8044 45.8607 -4.89537 0.014204 1 
19383 1 62.8425 45.8548 -2.02386 2.62739 5 
19384 1 60.42 45.4516 -3.33837 1.61209 5 
19385 1 61.6723 48.0391 -3.35887 0.957394 5 
19386 1 59.1678 47.6047 -4.82958 0.13969 1 
19387 1 59.2206 47.7156 -2.10083 7.75138 5 
19388 1 56.7736 47.1931 -3.29904 0.652549 1 
19389 1 53.177 49.0254 -2.9706 1.35044 5 
19390 1 -1.98016 37.6814 -1.17639 3.57804 5 
19391 1 -0.726684 40.2211 -1.44769 7.2192 5 
19392 1 81.8627 40.0919 -1.64701 13.0506 5 
19393 1 78.804 41.4692 -2.49656 5.97814 5 
19394 1 76.4174 41.0275 -0.852014 6.93199 5 
19395 1 77.8227 43.6596 -1.12712 9.80762 5 
19396 1 75.0649 43.209 -2.06664 5.38532 5 
19397 1 71.5116 44.9049 -2.16754 5.37809 5 
19398 1 69.1247 44.5774 -0.631512 12.1245 5 
19399 1 70.2427 47.1779 -0.983057 6.70946 5 
19400 1 67.7161 46.731 -2.16836 5.24796 5 
19401 1 68.4445 0.0251601 0.043856 9.75906 5 
19402 1 64.1801 48.4388 -2.24003 6.75558 5 
19403 1 62.5048 47.9966 -0.160737 7.95588 5 
37217 2 9.09009 2.74804 1.3512 7.01857 5 
20387 1 20.9245 43.6945 -14.9095 5.60564e-05 1 
20391 1 17.2729 45.4605 -14.7912 4.51968e-05 1 
20395 1 13.6232 47.2296 -14.6639 7.07385e-05 1 
20398 1 9.97808 49.0001 -14.5316 0.000114458 1 
20402 1 84.199 16.3207 -14.0679 7.55132e-05 1 
20406 1 80.5586 18.0803 -13.9466 0.000125617 1 
20410 1 76.9221 19.8359 -13.8304 0.000100694 1 
20414 1 73.2847 21.5908 -13.7229 8.8109e-05 1 
20418 1 69.6423 23.348 -13.6188 0.000103288 1 
20419 1 67.1448 22.9378 -14.9753 7.1055e-05 1 
20422 1 65.9936 25.1082 -13.5135 0.000104979 1 
20423 1 63.4933 24.7015 -14.8618 6.43598e-05 1 
20424 1 64.7426 27.2779 -14.9079 6.22537e-05 1 
20426 1 62.3395 26.8728 -13.3975 6.96411e-05 1 
20427 1 59.8414 26.4685 -14.7378 5.05541e-05 1 
20428 1 61.0901 29.0435 -14.7875 6.66973e-05 1 
20430 1 58.6877 28.641 -13.2676 0.00012773 1 
20431 1 56.1938 28.238 -14.6067 7.86396e-05 1 
20432 1 57.4401 30.812 -14.6575 0.000119667 1 
20434 1 55.0409 30.4124 -13.1308 0.000327644 1 
20435 1 52.5514 30.0084 -14.4747 0.000159847 1 
20436 1 53.7961 32.5814 -14.5229 0.000215456 1 
20438 1 51.4025 32.1831 -12.9965 0.000601466 1 
20439 1 48.9115 31.7784 -14.3512 9.71685e-05 1 
20440 1 50.1575 34.3506 -14.3975 0.000201658 1 
20442 1 47.7628 33.9545 -12.8807 0.000188842 1 
20443 1 45.2688 33.5478 -14.2337 7.00455e-05 1 
20444 1 46.5153 36.1212 -14.2822 6.93434e-05 1 
20446 1 44.117 35.7248 -12.7678 0.000103944 1 
20447 1 41.6234 35.3148 -14.1154 7.14255e-05 1 
20448 1 42.8697 37.8902 -14.1662 5.52255e-05 1 
20450 1 40.4696 37.4916 -12.647 0.000201572 1 
20451 1 37.981 37.0769 -13.9923 0.000171439 1 
20452 1 39.2258 39.6548 -14.0444 9.40595e-05 1 
20454 1 36.8302 39.2505 -12.521 0.000223803 1 
20455 1 34.3444 38.8337 -13.8733 0.000149144 1 
20456 1 35.5872 41.4134 -13.9232 8.59487e-05 1 
20458 1 33.1949 41.0052 -12.4024 0.000316323 1 
20459 1 30.7086 40.5885 -13.7621 0.000158622 1 
20460 1 31.9518 43.1688 -13.8067 0.000195647 1 
20462 1 29.5618 42.7577 -12.2949 0.000408301 1 
20463 1 27.0699 42.3438 -13.66 0.000122428 1 
20464 1 28.316 44.9236 -13.7024 0.00016267 1 
20466 1 25.9218 44.513 -12.2011 0.000213559 1 
20467 1 23.4239 44.1024 -13.559 0.000126092 1 
20468 1 24.6723 46.6818 -13.6032 0.00011675 1 
20469 1 22.1738 46.2724 -14.956 7.30765e-05 1 
20470 1 22.2717 46.2723 -12.1026 0.000184877 1 
20471 1 19.7717 45.8655 -13.4492 8.09722e-05 1 
20472 1 21.0221 48.4435 -13.4979 0.00014236 1 
20473 1 18.5223 48.0371 -14.8415 5.95695e-05 1 
20474 1 18.6183 48.0361 -11.9896 8.51701e-05 1 
20475 1 16.1193 47.6326 -13.3271 0.000100613 1 
20476 1 -0.086564 18.8971 -14.1143 6.78413e-05 1 
20477 1 0.00595325 18.9117 -11.249 0.00031703 1 
20478 1 83.0462 18.4975 -12.5947 0.000305742 1 
20479 1 -1.24086 21.0735 -12.6466 0.000196958 1 
20480 1 81.8015 20.6586 -13.9921 0.000168786 1 
20481 1 81.8922 20.6721 -11.1185 0.000881956 1 
20482 1 79.4083 20.2538 -12.4707 0.00054544 1 
20483 1 80.6498 22.8321 -12.5217 0.000226952 1 
20484 1 78.1643 22.4156 -13.8739 0.000151921 1 
20485 1 78.2589 22.4247 -10.9983 0.000551178 1 
20486 1 75.7736 22.0072 -12.3602 0.000139334 1 
20487 1 77.014 24.5871 -12.4036 0.000324622 1 
20488 1 74.528 24.1709 -13.7629 0.000160056 1 
20489 1 74.6251 24.1768 -10.8882 0.000687048 1 
20490 1 72.1362 23.7607 -12.2575 0.000138715 1 
20491 1 73.3805 26.3402 -12.296 0.00041233 1 
20492 1 70.8888 25.9267 -13.6605 0.000123341 1 
20493 1 70.9883 25.9292 -10.7958 0.00040892 1 
20494 1 68.4928 25.5169 -12.1582 0.000194129 1 
20495 1 69.7402 28.096 -12.2014 0.000215761 1 
20496 1 67.2421 27.6856 -13.5585 0.000129876 1 
20497 1 67.3411 27.6851 -10.7049 0.000605902 1 
20498 1 64.8398 27.2778 -12.0546 0.000205841 1 
20499 1 66.0894 29.8554 -12.1014 0.000194826 1 
20500 1 63.589 29.4485 -13.4467 9.88749e-05 1 
20501 1 63.6836 29.4471 -10.5954 0.000319064 1 
20502 1 61.1847 29.0427 -11.932 0.000231807 1 
20503 1 62.4351 31.6182 -11.9863 0.000106919 1 
20504 1 59.9359 31.2146 -13.3223 0.000159631 1 
20505 1 60.0304 31.2108 -10.4695 0.000637362 1 
20506 1 57.5327 30.8129 -11.7963 0.000432724 1 
20507 1 58.7807 33.3848 -11.8568 0.000519235 1 
20508 1 56.286 32.9843 -13.1849 0.000372405 1 
20509 1 56.3764 32.9847 -10.3184 0.00183908 1 
20510 1 53.8894 32.5851 -11.6489 0.000870358 1 
20511 1 55.1341 35.1546 -11.707 0.00152841 1 
20512 1 52.6472 34.7534 -13.048 0.000489903 1 
20513 1 52.7445 34.7539 -10.165 0.00235303 1 
20514 1 50.2562 34.3561 -11.5222 0.00099375 1 
20515 1 51.4999 36.925 -11.5821 0.000459965 1 
20516 1 49.0086 36.5252 -12.9313 0.000225201 1 
20517 1 49.1074 36.5305 -10.061 0.000948634 1 
20518 1 46.6123 36.1315 -11.4163 0.000251329 1 
20519 1 47.8579 38.7032 -11.471 0.000273276 1 
20520 1 45.3637 38.2989 -12.8193 9.45028e-05 1 
20521 1 45.4588 38.3115 -9.95879 0.000355488 1 
20522 1 42.9629 37.9031 -11.3057 0.000261378 1 
20523 1 44.2112 40.4796 -11.359 0.000180902 1 
20524 1 41.7166 40.0685 -12.7025 0.000230224 1 
20525 1 41.8073 40.0836 -9.84859 0.00207238 1 
20526 1 39.3159 39.668 -11.1777 0.000525885 1 
20527 1 40.5641 42.2487 -11.2389 0.000454971 1 
20528 1 38.0744 41.8305 -12.5779 0.000154006 1 
20529 1 38.1645 41.8431 -9.71418 0.000646801 1 
20530 1 35.6791 41.4228 -11.0528 0.00027911 1 
20531 1 36.9237 44.0065 -11.1119 0.000316359 1 
20532 1 34.4373 43.5863 -12.4553 0.000160696 1 
20533 1 34.5278 43.5943 -9.58549 0.000844984 1 
20534 1 32.0465 43.1747 -10.9303 0.00105987 1 
20535 1 33.2895 45.7583 -10.9881 0.000339471 1 
20536 1 30.8052 45.3388 -12.3408 0.000361661 1 
20537 1 30.9017 45.3411 -9.46309 0.00225145 1 
20538 1 28.416 44.9254 -10.834 0.00063268 1 
20539 1 29.6596 47.5085 -10.8806 0.000537971 1 
20540 1 27.1683 47.0936 -12.2438 0.000207995 1 
20541 1 27.2675 47.0939 -9.38262 0.000725574 1 
20542 1 24.7711 46.6822 -10.7472 0.000254621 1 
20543 1 23.5222 48.8524 -12.1472 0.000212055 1 
20544 1 23.6194 48.8515 -9.2969 0.000561218 1 
20545 1 21.1187 48.4422 -10.6494 0.000527188 1 
20546 1 -1.15211 21.0897 -9.78202 0.00106185 1 
20547 1 83.1353 23.2493 -11.1784 0.000524672 1 
20548 1 83.2222 23.2652 -8.30767 0.00424541 1 
20549 1 80.7413 22.8434 -9.64496 0.00090477 1 
20550 1 81.9823 25.4241 -9.71628 0.000663053 1 
20551 1 79.4976 25.0043 -11.0545 0.000296257 1 
20552 1 79.5876 25.0124 -8.18254 0.00123318 1 
20553 1 77.1067 24.5948 -9.52426 0.00147595 1 
20554 1 78.3451 27.1759 -9.58787 0.000867797 1 
20555 1 75.8647 26.7568 -10.932 0.00107315 1 
20556 1 75.9562 26.761 -8.04138 0.00660826 1 
20557 1 73.479 26.343 -9.41711 0.00226593 1 
20558 1 74.7193 28.9236 -9.46491 0.00226236 1 
20559 1 72.2343 28.5082 -10.8351 0.000641416 1 
20560 1 72.3341 28.5071 -7.96046 0.00305545 1 
20561 1 69.8401 28.097 -9.34112 0.000848883 1 
20562 1 71.0858 30.677 -9.38345 0.000741094 1 
20563 1 68.5893 30.2653 -10.7471 0.000262947 1 
20564 1 68.6851 30.2642 -7.89391 0.00106498 1 
20565 1 66.1845 29.8541 -9.25255 0.000654854 1 
20566 1 67.4373 32.4346 -9.29636 0.000576862 1 
20567 1 64.9359 32.025 -10.6474 0.000536009 1 
20568 1 65.0281 32.0231 -7.80739 0.00464818 1 
20569 1 62.5296 31.6142 -9.13489 0.000436875 1 
20570 1 63.7828 34.1948 -9.1953 0.00105463 1 
20571 1 61.2813 33.7868 -10.5283 0.000332533 1 
20572 1 61.3759 33.7785 -7.68354 0.00192717 1 
20573 1 58.8749 33.3782 -9.00751 0.00190067 1 
20574 1 60.1294 35.9531 -9.06807 0.000664205 1 
20575 1 57.6253 35.5538 -10.3901 0.00281051 1 
20576 1 57.7241 35.5453 -7.54742 0.0180764 1 
20577 1 55.2254 35.151 -8.82021 0.0117458 1 
20578 1 56.4745 37.7207 -8.91875 0.0027394 1 
20579 1 53.9878 37.322 -10.2387 0.00123292 1 
20580 1 54.0817 37.3116 -7.35622 0.0104026 1 
20581 1 51.5995 36.9214 -8.70732 0.00211619 1 
20582 1 52.8444 39.4922 -8.77817 0.00277706 1 
20583 1 50.3516 39.1009 -10.1243 0.000657125 1 
20584 1 50.4522 39.0994 -7.2672 0.00712301 1 
20585 1 47.9528 38.7125 -8.61137 0.00151644 1 
20586 1 49.1993 41.2847 -8.66934 0.0012278 1 
20587 1 46.7055 40.887 -10.0127 0.000370881 1 
20588 1 46.7927 40.9043 -7.15747 0.000977092 1 
20589 1 44.3063 40.4969 -8.5053 0.00127499 1 