ITEM: TIMESTEP
0
ITEM: NUMBER OF ATOMS
7822
ITEM: BOX BOUNDS xy xz yz pp pp ss
-297.373408704 98.374158192 -297.373408704
0 44.585166205 0
-106.536254050418 102.2562263247076 0
ITEM: ATOMS id type x y z c_csym c_cna 
27908 1 2.50195 0.813242 -6.70766 0.00490148 1 
27907 1 0.97295 1.00378 -9.13663 0.000623015 1 
27972 1 7.81025 1.35229 -3.06757 2.4912 5 
27970 1 4.02928 0.595789 -4.25646 0.104526 1 
27969 1 -198.82 44.4797 -5.3529 0.0543998 1 
27902 1 21.5827 6.95115 -2.51078 6.30265 5 
19868 1 -211.047 43.5042 -14.7535 5.91243e-05 1 
19869 1 -207.216 44.263 -13.6889 8.61783e-05 1 
19960 1 -208.631 41.9756 -14.6865 8.30652e-05 1 
19963 1 -206.215 40.4475 -14.6207 0.000109613 1 
19964 1 -204.799 42.7347 -13.6252 0.000120203 1 
19966 1 -202.463 43.6821 -14.9875 5.43293e-05 1 
19967 1 -202.38 41.2054 -13.5611 0.000148296 1 
19968 1 -200.961 43.4926 -12.5624 0.00015917 1 
19969 1 -200.043 42.1498 -14.9215 5.27331e-05 1 
19970 1 -198.539 41.9587 -12.496 0.000163043 1 
19971 1 -197.116 44.242 -11.4941 0.000195232 1 
20067 1 -203.798 38.9189 -14.5555 0.000125452 1 
20070 1 -201.378 37.3888 -14.489 0.000101588 1 
20071 1 -199.959 39.6734 -13.4944 0.000141924 1 
20073 1 -197.623 40.6152 -14.8532 5.39005e-05 1 
20074 1 -197.538 38.1389 -13.4236 0.000137698 1 
20175 1 -198.957 35.8571 -14.4199 6.65391e-05 1 
20944 1 -228.222 43.165 -14.3124 2.39262e-05 1 
20946 1 -224.388 43.9065 -13.2453 4.29497e-05 1 
21019 1 -225.804 41.6294 -14.2438 1.78734e-05 1 
21022 1 -223.384 40.0956 -14.1739 1.93807e-05 1 
21023 1 -221.969 42.3736 -13.1762 6.07505e-05 1 
21025 1 -219.632 43.3266 -14.5356 5.00755e-05 1 
21026 1 -219.547 40.8419 -13.1041 7.00721e-05 1 
21027 1 -218.132 43.1226 -12.1085 0.000231021 1 
21028 1 -217.212 41.7953 -14.4625 6.77169e-05 1 
21029 1 -215.795 44.0784 -13.4638 0.000145373 1 
21030 1 -215.709 41.5924 -12.0308 0.000264107 1 
21031 1 -214.293 43.8774 -11.0346 0.000698658 1 
21032 1 -213.378 42.5488 -13.3908 0.000130261 1 
21033 1 -211.878 42.3492 -10.9588 0.000512129 1 
21034 1 -209.549 43.3085 -12.3253 0.000282631 1 
21035 1 -208.058 43.1163 -9.90109 0.00213557 1 
21036 1 -205.719 44.0733 -11.2637 0.000261627 1 
21037 1 -204.224 43.8896 -8.84356 0.0017012 1 
21114 1 -220.964 38.5634 -14.102 2.62712e-05 1 
21117 1 -218.543 37.0325 -14.0275 6.5202e-05 1 
21118 1 -217.126 39.3116 -13.0282 9.27883e-05 1 
21120 1 -214.793 40.2655 -14.388 7.58542e-05 1 
21121 1 -214.706 37.7832 -12.9508 0.000107528 1 
21122 1 -213.291 40.0645 -11.9521 0.000258752 1 
21123 1 -212.376 38.7374 -14.3149 6.01225e-05 1 
21124 1 -210.962 41.0208 -13.3195 0.000116897 1 
21125 1 -210.876 38.5392 -11.8783 0.000176755 1 
21126 1 -209.465 40.824 -10.8876 0.000462213 1 
21127 1 -208.548 39.4943 -13.251 0.000134099 1 
21128 1 -207.135 41.7818 -12.26 0.000372297 1 
21129 1 -207.051 39.3005 -10.8213 0.00060068 1 
21130 1 -205.642 41.5912 -9.84129 0.00225768 1 
21131 1 -204.718 40.2554 -12.1968 0.000457345 1 
21132 1 -203.301 42.5471 -11.2036 0.000397671 1 
21133 1 -203.221 40.0679 -9.78091 0.00198865 1 
21134 1 -201.806 42.3687 -8.78864 0.00535106 1 
21135 1 -200.88 41.0181 -11.1414 0.000675936 1 
21136 1 -199.454 43.3063 -10.1406 0.000815116 1 
21137 1 -199.371 40.8344 -8.73408 0.00417905 1 
21138 1 -197.931 43.1257 -7.71635 0.00598493 1 
21139 1 -197.029 41.7703 -10.0713 0.000757617 1 
21221 1 -217.541 33.2234 -14.9535 6.13414e-05 1 
21222 1 -216.123 35.5031 -13.9514 0.000105394 1 
21225 1 -213.706 33.9756 -13.8763 9.28591e-05 1 
21226 1 -212.29 36.2569 -12.8759 8.96931e-05 1 
21228 1 -209.961 37.2107 -14.2445 6.04304e-05 1 
21229 1 -209.875 34.7325 -12.8051 9.50669e-05 1 
21230 1 -208.461 37.0158 -11.8088 0.000219069 1 
21231 1 -207.546 35.6851 -14.1771 7.64283e-05 1 
21232 1 -206.132 37.9687 -13.1851 0.000174758 1 
21233 1 -206.047 35.4939 -11.7437 0.000272105 1 
21234 1 -204.634 37.7785 -10.758 0.000693524 1 
21235 1 -203.714 36.4426 -13.1207 0.000190204 1 
21236 1 -202.298 38.7279 -12.133 0.000457236 1 
21237 1 -202.214 36.2541 -10.6967 0.000717127 1 
21238 1 -200.797 38.5417 -9.71742 0.00153407 1 
21239 1 -199.875 37.1975 -12.0647 0.000304432 1 
21240 1 -198.454 39.4832 -11.0726 0.000600413 1 
21241 1 -198.371 37.0101 -9.64146 0.0010652 1 
21242 1 -196.946 39.2974 -8.64815 0.00242727 1 
21326 1 -116.748 31.6947 -14.8785 7.58833e-05 1 
21329 1 -114.331 30.1674 -14.8052 7.28855e-05 1 
21330 1 -211.29 32.4497 -13.8042 8.45141e-05 1 
21333 1 -110.502 30.925 -13.7361 9.31281e-05 1 
21334 1 -207.462 33.2094 -12.7388 0.000118733 1 
21336 1 -205.13 34.1594 -14.1123 9.42722e-05 1 
21337 1 -205.048 31.6856 -12.6769 0.000175185 1 
21338 1 -203.631 33.9705 -11.6829 0.000332212 1 
21339 1 -202.713 32.6321 -14.0484 8.26954e-05 1 
21340 1 -201.295 34.9144 -13.0552 0.000126926 1 
21341 1 -201.211 32.4437 -11.6217 0.000200733 1 
21342 1 -199.79 34.7259 -10.6294 0.000363005 1 
21343 1 -198.873 33.3841 -12.9871 7.35663e-05 1 
21344 1 -197.452 35.665 -11.9907 0.000193875 1 
21345 1 -197.366 33.1948 -10.5575 0.000151064 1 
21434 1 -111.917 28.6414 -14.7352 6.58501e-05 1 
21437 1 -109.504 27.1156 -14.6691 7.92504e-05 1 
21438 1 -108.089 29.4003 -13.6723 0.000132948 1 
21441 1 -105.675 27.8739 -13.6115 0.000168726 1 
21442 1 -104.257 30.1595 -12.6167 0.000190728 1 
21443 1 -103.339 28.8198 -14.9803 6.39615e-05 1 
21444 1 -200.294 31.1026 -13.9836 6.52236e-05 1 
21445 1 -101.837 28.6304 -12.5549 0.000154976 1 
21446 1 -198.789 30.9138 -11.5566 0.000141423 1 
21447 1 -99.4993 29.5705 -13.9168 5.7285e-05 1 
21540 1 -107.09 25.589 -14.6062 0.000102973 1 
21543 1 -104.673 24.0606 -14.5449 0.000110219 1 
21544 1 -103.257 26.3452 -13.5508 0.000170263 1 
21546 1 -100.919 27.2883 -14.9153 4.91808e-05 1 
21547 1 -100.836 24.8136 -13.4869 0.000124708 1 
21548 1 -99.4156 27.0977 -12.489 0.000134855 1 
21549 1 -98.4994 25.7544 -14.848 4.29047e-05 1 
21648 1 -102.254 22.5301 -14.482 8.14365e-05 1 
21651 1 -99.8338 20.9977 -14.4158 5.0411e-05 1 
21652 1 -98.4147 23.2793 -13.4184 0.000101237 1 
22025 1 -251.65 43.6821 -14.9875 5.43293e-05 1 
22027 1 -249.23 42.1498 -14.9215 5.27331e-05 1 
22029 1 -245.39 42.8969 -13.8529 7.6819e-05 1 
22031 1 -241.554 43.6367 -12.7803 0.000147629 1 
22032 1 -237.728 44.3684 -11.7105 0.000309805 1 
22083 1 -246.81 40.6152 -14.8532 5.39005e-05 1 
22086 1 -244.391 39.0787 -14.783 5.6155e-05 1 
22087 1 -242.973 41.3583 -13.783 8.29315e-05 1 
22090 1 -240.558 39.818 -13.7136 8.65652e-05 1 
22091 1 -239.142 42.0945 -12.7127 0.000137391 1 
22093 1 -236.811 43.0302 -14.0794 7.73189e-05 1 
22094 1 -236.73 40.551 -12.6486 0.000160352 1 
22095 1 -235.314 42.8235 -11.6495 0.000257421 1 
22096 1 -234.395 41.4881 -14.0147 6.42081e-05 1 
22097 1 -232.978 43.7601 -13.017 9.14065e-05 1 
22098 1 -232.897 41.2781 -11.5876 0.00018563 1 
22099 1 -231.479 43.5472 -10.5903 0.000276215 1 
22100 1 -230.559 42.2191 -12.9507 6.37677e-05 1 
22101 1 -229.058 42.0053 -10.5235 0.000207361 1 
22102 1 -227.637 44.276 -9.51721 0.00142501 1 
22103 1 -226.722 42.9551 -11.8828 0.000123312 1 
22104 1 -225.223 42.7437 -9.45113 0.00167085 1 
22105 1 -222.892 43.699 -10.8177 0.000307207 1 
22106 1 -221.403 43.4916 -8.39456 0.00253309 1 
22107 1 -217.564 44.2475 -7.35218 0.00366219 1 
22163 1 -241.975 37.5407 -14.7127 5.44973e-05 1 
22166 1 -239.56 36.0013 -14.6442 6.22256e-05 1 
22167 1 -238.145 38.2764 -13.6468 0.000108775 1 
22170 1 -235.73 36.7336 -13.5823 0.000137742 1 
22171 1 -234.314 39.0064 -12.5859 0.000135068 1 
22172 1 -233.393 37.6732 -14.947 3.971e-05 1 
22173 1 -231.976 39.9465 -13.949 4.76892e-05 1 
22174 1 -231.895 37.4627 -12.52 9.74719e-05 1 
22175 1 -230.477 39.7341 -11.522 0.000121645 1 
22176 1 -229.557 38.4067 -13.8815 3.10266e-05 1 
22177 1 -228.14 40.6804 -12.8832 3.99392e-05 1 
22178 1 -228.057 38.1944 -11.4534 6.79901e-05 1 
22179 1 -226.64 40.4677 -10.4558 0.000198427 1 
22180 1 -225.721 39.1445 -12.8144 3.50046e-05 1 
22181 1 -224.304 41.421 -11.8142 0.000118314 1 
22182 1 -224.222 38.9344 -10.3869 0.000342079 1 
22183 1 -222.806 41.214 -9.38106 0.0017991 1 
22184 1 -221.884 39.8894 -11.7437 0.000142767 1 
22185 1 -220.471 42.1672 -10.7497 0.000428935 1 
22186 1 -220.382 39.6839 -9.31356 0.00113741 1 
22187 1 -218.972 41.9609 -8.32914 0.00234141 1 
22188 1 -218.045 40.637 -10.6747 0.000310954 1 
22189 1 -216.629 42.9187 -9.6834 0.000919002 1 
22190 1 -216.54 40.4328 -8.24281 0.00202784 1 
22191 1 -215.127 42.7164 -7.25456 0.00420326 1 
22192 1 -214.204 41.3898 -9.59425 0.00109578 1 
22193 1 -212.79 43.6759 -8.60322 0.00363129 1 
22194 1 -212.699 41.1916 -7.14402 0.00657467 1 
22195 1 -211.296 43.4765 -6.1505 0.0213106 1 
22196 1 -210.384 42.1508 -8.52413 0.00287907 1 
22197 1 -208.904 41.9491 -6.09265 0.0318088 1 
22198 1 -207.566 44.2715 -5.2036 0.342525 1 
22199 1 -206.576 42.9235 -7.49636 0.0205361 1 
22200 1 -205.093 42.7342 -5.11072 0.210126 1 
22201 1 -202.742 43.7255 -6.41529 0.0699811 1 
22202 1 -201.17 43.5213 -4.12234 0.184715 1 
22203 1 -197.244 44.3087 -2.96645 7.10637 5 
22264 1 -138.771 34.4605 -14.5779 8.14314e-05 1 
22267 1 -136.354 32.9192 -14.5123 8.28224e-05 1 
22268 1 -233.312 35.191 -13.5169 0.000121025 1 
22270 1 -230.975 36.1332 -14.8796 2.94616e-05 1 
22271 1 -132.518 33.6499 -13.4491 8.17343e-05 1 
22272 1 -229.475 35.922 -12.4514 5.39584e-05 1 
22273 1 -228.555 34.595 -14.8106 2.12427e-05 1 
22274 1 -227.138 36.8693 -13.8124 2.33956e-05 1 
22275 1 -227.055 34.3844 -12.3808 3.97868e-05 1 
22276 1 -225.639 36.6587 -11.3831 8.16535e-05 1 
22277 1 -224.719 35.3346 -13.7421 2.35237e-05 1 
22278 1 -223.302 37.6113 -12.744 4.2297e-05 1 
22279 1 -223.221 35.1272 -11.3123 0.000123213 1 
22280 1 -221.802 37.4048 -10.3161 0.000314117 1 
22281 1 -220.881 36.0801 -12.6718 6.5719e-05 1 
22282 1 -219.462 38.359 -11.6708 0.000180267 1 
22283 1 -219.382 35.8769 -10.244 0.000567588 1 
22284 1 -217.957 38.1567 -9.2368 0.00189236 1 
22285 1 -217.039 36.8297 -11.5921 0.000399831 1 
22286 1 -215.621 39.1087 -10.5925 0.000263389 1 
22287 1 -215.531 36.6294 -9.14978 0.00311697 1 
22288 1 -214.115 38.9077 -8.15068 0.00122428 1 
22289 1 -213.202 37.583 -10.5108 0.00019458 1 
22290 1 -211.787 39.8652 -9.50934 0.00134717 1 
22291 1 -211.693 37.384 -8.06775 0.000880135 1 
22292 1 -210.28 39.6664 -7.05349 0.014366 1 
22293 1 -209.375 38.3437 -9.43835 0.00110478 1 
22294 1 -207.973 40.6286 -8.45753 0.00328321 1 
22295 1 -207.876 38.1571 -6.98971 0.0104341 1 
22296 1 -206.495 40.4507 -6.02413 0.0219522 1 
22297 1 -205.557 39.1135 -8.39355 0.00275 1 
22298 1 -204.15 41.4072 -7.43774 0.014248 1 
22299 1 -204.062 38.9375 -5.9793 0.0134295 1 
22300 1 -202.64 41.2309 -5.06731 0.0637029 1 
22301 1 -201.72 39.8879 -7.37844 0.00690554 1 
22302 1 -200.284 42.1851 -6.41522 0.0325116 1 
22303 1 -200.225 39.7462 -4.96606 0.0250568 1 
22304 1 -198.728 42.0055 -4.045 0.215868 1 
22305 1 -197.852 40.6589 -6.32346 0.0236814 1 
22370 1 -133.935 31.3785 -14.4457 6.17874e-05 1 
22373 1 -131.515 29.8394 -14.3774 4.18466e-05 1 
22374 1 -130.097 32.1113 -13.3792 4.82588e-05 1 
22376 1 -127.761 33.0592 -14.7404 1.52071e-05 1 
22377 1 -127.678 30.5757 -13.3085 2.86103e-05 1 
22378 1 -126.262 32.8504 -12.3097 6.50664e-05 1 
22379 1 -125.341 31.5253 -14.6692 1.70276e-05 1 
22380 1 -222.299 33.8021 -13.6706 3.48596e-05 1 
22381 1 -123.842 31.3184 -12.2385 9.92162e-05 1 
22382 1 -220.802 33.5966 -11.242 0.000274473 1 
22383 1 -121.504 32.2709 -13.5973 5.98302e-05 1 
22384 1 -218.459 34.55 -12.5962 0.000139169 1 
22385 1 -120.003 32.0661 -11.1683 0.000414359 1 
22386 1 -216.954 34.3468 -10.1642 0.0012145 1 
22387 1 -216.037 33.0212 -12.5177 0.000324067 1 
22388 1 -214.619 35.3024 -11.5124 0.000379674 1 
22389 1 -214.528 32.8199 -10.0772 0.00244654 1 
22390 1 -213.109 35.102 -9.06927 0.00134897 1 
22391 1 -212.202 33.7774 -11.4364 0.000215638 1 
22392 1 -210.786 36.0599 -10.4356 0.000209676 1 
22393 1 -210.697 33.5826 -8.99133 0.000519234 1 
22394 1 -209.28 35.866 -7.99216 0.00120791 1 
22395 1 -208.373 34.5405 -10.3666 0.000242053 1 
22396 1 -206.96 36.8266 -9.36959 0.00124883 1 
22397 1 -206.866 34.3546 -7.92949 0.00218072 1 
22398 1 -205.453 36.6486 -6.92499 0.0112773 1 
22399 1 -204.545 35.3091 -9.30976 0.00136959 1 
22400 1 -203.136 37.5944 -8.33759 0.0031115 1 
22401 1 -203.031 35.1304 -6.87619 0.00896875 1 
22402 1 -201.636 37.4256 -5.92959 0.0254035 1 
22403 1 -200.712 36.0719 -8.27969 0.00386072 1 
22404 1 -199.299 38.3704 -7.30689 0.00606817 1 
22405 1 -199.225 35.9066 -5.87334 0.0414682 1 
22406 1 -197.817 38.2337 -4.90708 0.0499698 1 
22407 1 -196.872 36.8305 -7.21692 0.0104533 1 
22478 1 -129.095 28.3023 -14.3081 2.77574e-05 1 
22481 1 -126.675 26.7673 -14.2378 2.36748e-05 1 
22482 1 -125.258 29.0421 -13.2374 2.97429e-05 1 
22484 1 -122.921 29.9931 -14.5967 2.27554e-05 1 
22485 1 -122.836 27.5104 -13.1645 4.14882e-05 1 
22486 1 -121.42 29.7869 -12.1655 0.000124967 1 
22487 1 -120.5 28.4624 -14.5224 4.1684e-05 1 
22488 1 -119.082 30.7409 -13.5216 0.000104383 1 
22489 1 -118.996 28.2577 -12.0881 0.000166707 1 
22490 1 -117.577 30.5374 -11.0884 0.000604229 1 
22491 1 -116.661 29.2128 -13.4443 0.000150158 1 
22492 1 -115.244 31.4948 -12.4403 0.000273904 1 
22493 1 -115.155 29.0113 -11.0056 0.000652085 1 
22494 1 -113.739 31.2982 -9.99693 0.00129361 1 
22495 1 -112.829 29.9703 -12.3661 0.000197192 1 
22496 1 -209.789 32.2553 -11.3648 0.000206216 1 
22497 1 -111.327 29.7765 -9.92446 0.000973645 1 
22498 1 -208.288 32.0674 -8.92293 0.00113478 1 
22499 1 -109.004 30.7347 -11.3003 0.000316793 1 
22500 1 -205.961 33.0218 -10.3051 0.000353421 1 
22501 1 -107.508 30.5507 -8.8687 0.000914929 1 
22502 1 -204.457 32.8434 -7.87232 0.00317954 1 
22503 1 -203.549 31.5006 -10.2501 0.000780094 1 
22504 1 -202.128 33.7867 -9.25742 0.00155077 1 
22505 1 -202.043 31.3184 -7.83614 0.00463305 1 
22506 1 -200.619 33.6115 -6.83502 0.0159388 1 
22507 1 -199.704 32.2594 -9.19715 0.000586435 1 
22508 1 -198.28 34.5407 -8.20121 0.00355812 1 
22509 1 -198.183 32.0699 -6.77944 0.00569062 1 
22510 1 -196.753 34.3538 -5.76784 0.0617396 1 
22586 1 -124.255 25.2347 -14.1659 2.97563e-05 1 
22589 1 -121.834 23.7044 -14.0923 4.46553e-05 1 
22590 1 -120.414 25.9809 -13.089 6.98944e-05 1 
22592 1 -118.079 26.9335 -14.4462 8.7964e-05 1 
22593 1 -117.993 24.4533 -13.0117 0.000111812 1 
22594 1 -116.573 26.7311 -12.007 0.000351959 1 
22595 1 -115.661 25.4064 -14.3708 0.000112434 1 
22596 1 -114.244 27.6869 -13.3685 0.000141012 1 
22597 1 -114.156 25.2073 -11.9284 0.000407311 1 
22598 1 -112.74 27.489 -10.9263 0.000486061 1 
22599 1 -111.831 26.1625 -13.2974 0.000117803 1 
22600 1 -110.417 28.4473 -12.2979 0.000216801 1 
22601 1 -110.331 25.9694 -10.8569 0.000385177 1 
22602 1 -108.922 28.2597 -9.85903 0.00107138 1 
22603 1 -108.007 26.9243 -12.2359 0.000296336 1 
22604 1 -106.593 29.2122 -11.2433 0.000435189 1 
22605 1 -106.514 26.7379 -9.80898 0.000980162 1 
22606 1 -105.099 29.0302 -8.82333 0.00136438 1 
22607 1 -104.178 27.6869 -11.1889 0.000551104 1 
22608 1 -102.754 29.9743 -10.195 0.000544883 1 
22609 1 -102.68 27.5066 -8.77664 0.00256836 1 
22610 1 -101.24 29.7911 -7.77575 0.00556168 1 
22611 1 -100.331 28.445 -10.1315 0.000679407 1 
22612 1 -197.277 30.7259 -9.13007 0.000505414 1 
22613 1 -98.8172 28.267 -7.69912 0.00809183 1 
22694 1 -119.413 22.1753 -14.0174 9.33458e-05 1 
22697 1 -116.995 20.6473 -13.9426 0.000127391 1 
22698 1 -115.575 22.9272 -12.9356 0.000126244 1 
22700 1 -113.246 23.8806 -14.299 9.5511e-05 1 
22701 1 -113.16 21.4019 -12.864 9.45755e-05 1 
22702 1 -111.744 23.6848 -11.8581 0.000313719 1 
22703 1 -110.833 22.3549 -14.2316 8.30252e-05 1 
22704 1 -109.419 24.6383 -13.232 0.000128103 1 
22705 1 -109.332 22.1614 -11.7942 0.000294546 1 
22706 1 -107.922 24.4475 -10.7981 0.000479787 1 
22707 1 -107.006 23.1127 -13.1714 0.000159543 1 
22708 1 -105.593 25.3986 -12.179 0.000334002 1 
22709 1 -105.509 22.9231 -10.7442 0.000654618 1 
22710 1 -104.097 25.2129 -9.76065 0.00101895 1 
22711 1 -103.174 23.8703 -12.1215 0.000358666 1 
22712 1 -101.756 26.1581 -11.1308 0.000590646 1 
22713 1 -101.674 23.6852 -9.70579 0.0012107 1 
22714 1 -100.251 25.9769 -8.71949 0.00286426 1 
22715 1 -99.3318 24.6242 -11.0642 0.000429311 1 
22798 1 -118.414 18.3675 -14.9493 6.87236e-05 1 
22801 1 -17.6223 16.8391 -14.8764 7.74514e-05 1 
22802 1 -114.578 19.1202 -13.87 9.97756e-05 1 
22805 1 -112.164 17.5937 -13.8008 7.80136e-05 1 
22806 1 -110.747 19.8769 -12.7974 8.22497e-05 1 
22808 1 -108.42 20.8288 -14.1681 8.75635e-05 1 
22809 1 -108.335 18.3522 -12.7348 0.000101608 1 
22810 1 -106.92 20.6378 -11.7348 0.000373618 1 
22811 1 -106.005 19.3018 -14.107 0.000103578 1 
22812 1 -104.59 21.5852 -13.1123 0.000187423 1 
22813 1 -104.505 19.1116 -11.6793 0.000305396 1 
22814 1 -103.089 21.396 -10.69 0.000649281 1 
22815 1 -102.17 20.0555 -13.0509 0.000112104 1 
22816 1 -100.752 22.3389 -12.058 0.00023623 1 
22817 1 -100.665 19.866 -10.6265 0.000340851 1 
22818 1 -99.2478 22.1511 -9.63597 0.0010562 1 
22819 1 -98.3289 20.8054 -11.9873 0.000169854 1 
22899 1 -15.2063 15.3116 -14.8054 6.88534e-05 1 
22902 1 -12.7921 13.7848 -14.7372 5.86886e-05 1 
22903 1 -11.3765 16.068 -13.7352 8.03723e-05 1 
22906 1 -8.96395 14.5418 -13.673 0.000112188 1 
22907 1 -105.922 16.8265 -12.6756 0.000157073 1 
22909 1 -103.588 17.7729 -14.0461 7.63383e-05 1 
22910 1 -5.13206 15.299 -12.6168 0.00017288 1 
22911 1 -102.086 17.5833 -11.6204 0.000183003 1 
22912 1 -101.169 16.2424 -13.983 5.87243e-05 1 
22913 1 -99.749 18.5241 -12.9852 6.64171e-05 1 
22914 1 -99.6643 16.0527 -11.5567 0.000136402 1 
22976 1 -10.3788 12.2578 -14.6723 6.35462e-05 1 
22979 1 -7.96477 10.7298 -14.6098 7.25008e-05 1 
22980 1 -6.5496 13.014 -13.6131 0.000139675 1 
22982 1 -4.21383 13.9595 -14.9809 5.42113e-05 1 
22983 1 -4.13201 11.4841 -13.5527 0.000149305 1 
22984 1 -2.71238 13.7691 -12.5558 0.00014872 1 
22985 1 -1.79463 12.4274 -14.9165 4.36679e-05 1 
22986 1 -0.374865 14.7097 -13.9172 5.45993e-05 1 
22987 1 -0.291181 12.2362 -12.4904 0.000136524 1 
23033 1 -5.54851 9.20006 -14.5482 7.71073e-05 1 
23036 1 -3.12975 7.66876 -14.4849 6.09983e-05 1 
23037 1 -1.71161 9.95197 -13.4889 0.000117594 1 
23068 1 -0.709491 6.13613 -14.4184 4.19395e-05 1 
23122 1 -268.819 43.3266 -14.5356 5.00755e-05 1 
23125 1 -266.399 41.7953 -14.4625 6.77169e-05 1 
23126 1 -264.982 44.0784 -13.4638 0.000145373 1 
23128 1 -262.565 42.5488 -13.3908 0.000130261 1 
23129 1 -260.234 43.5042 -14.7535 5.91243e-05 1 
23130 1 -258.736 43.3085 -12.3253 0.000282631 1 
23131 1 -256.403 44.263 -13.6889 8.61783e-05 1 
23132 1 -254.906 44.0733 -11.2637 0.000261627 1 
23165 1 -263.98 40.2655 -14.388 7.58542e-05 1 
23168 1 -163.189 38.7374 -14.3149 6.01225e-05 1 
23169 1 -260.149 41.0208 -13.3195 0.000116897 1 
23171 1 -257.818 41.9756 -14.6865 8.30651e-05 1 
23172 1 -257.735 39.4943 -13.251 0.000134099 1 
23173 1 -256.322 41.7818 -12.26 0.000372297 1 
23174 1 -255.402 40.4475 -14.6207 0.000109613 1 
23175 1 -253.986 42.7347 -13.6252 0.000120203 1 
23176 1 -253.905 40.2554 -12.1968 0.000457345 1 
23177 1 -252.488 42.5471 -11.2036 0.000397671 1 
23178 1 -251.567 41.2054 -13.5611 0.000148296 1 
23179 1 -250.148 43.4926 -12.5624 0.00015917 1 
23180 1 -250.067 41.0181 -11.1414 0.000675936 1 
23181 1 -248.641 43.3063 -10.1406 0.000815116 1 
23182 1 -247.726 41.9587 -12.496 0.000163043 1 
23183 1 -246.303 44.242 -11.4941 0.000195232 1 
23184 1 -246.216 41.7703 -10.0713 0.000757616 1 
23185 1 -244.789 44.0515 -9.06472 0.000643906 1 
23186 1 -243.883 42.7026 -11.4223 0.000270924 1 
23187 1 -242.375 42.507 -8.98606 0.00157025 1 
23188 1 -240.053 43.4371 -10.3428 0.000604731 1 
23189 1 -238.558 43.2369 -7.89678 0.00341223 1 
23190 1 -236.234 44.161 -9.27606 0.00103429 1 
23191 1 -234.734 43.9493 -6.84545 0.0051327 1 
23228 1 -160.774 37.2107 -14.2445 6.04304e-05 1 
23231 1 -158.359 35.6851 -14.1771 7.64283e-05 1 
23232 1 -156.945 37.9687 -13.1851 0.000174758 1 
23234 1 -252.985 38.9189 -14.5555 0.000125452 1 
23235 1 -154.527 36.4426 -13.1207 0.000190204 1 
23236 1 -251.485 38.7279 -12.133 0.000457236 1 
23237 1 -152.191 37.3888 -14.489 0.000101588 1 
23238 1 -249.146 39.6734 -13.4944 0.000141924 1 
23239 1 -150.688 37.1975 -12.0647 0.000304432 1 
23240 1 -247.641 39.4832 -11.0726 0.000600413 1 
23241 1 -246.725 38.1389 -13.4236 0.000137698 1 
23242 1 -245.305 40.4214 -12.4246 0.000209239 1 
23243 1 -245.219 37.9465 -10.993 0.000534939 1 
23244 1 -243.797 40.2277 -9.99204 0.00119989 1 
23245 1 -242.888 38.8819 -12.3504 0.000224754 1 
23246 1 -241.47 41.1602 -11.3492 0.000341578 1 
23247 1 -241.39 38.6848 -9.91067 0.000685388 1 
23248 1 -239.974 40.9606 -8.90992 0.00111479 1 
23249 1 -239.062 39.6161 -11.2801 0.00031167 1 
23250 1 -237.647 41.8913 -10.2783 0.000546959 1 
23251 1 -237.572 39.4092 -8.85087 0.00120202 1 
23252 1 -236.151 41.6831 -7.85158 0.00151604 1 
23253 1 -235.236 40.3429 -10.2235 0.000639044 1 
23254 1 -233.817 42.6129 -9.22361 0.00106604 1 
23255 1 -233.742 40.1297 -7.81029 0.00395481 1 
23256 1 -232.312 42.3926 -6.80506 0.00415719 1 
23257 1 -231.395 41.0616 -9.16355 0.000698144 1 
23258 1 -229.975 43.3269 -8.16667 0.00124032 1 
23259 1 -229.886 40.8348 -6.73717 0.0043257 1 
23260 1 -228.465 43.0938 -5.74323 0.0147685 1 
23261 1 -227.555 41.7858 -8.09648 0.00179548 1 
23262 1 -226.129 44.055 -7.06878 0.0228412 1 
23263 1 -226.06 41.5556 -5.67336 0.0647666 1 
23264 1 -224.642 43.8728 -4.54474 0.352398 1 
23265 1 -223.737 42.5381 -7.00656 0.0286313 1 
23266 1 -222.239 42.3523 -4.61334 0.218886 1 
23267 1 -219.911 43.2874 -5.99109 0.012549 1 
23268 1 -218.428 43.1083 -3.59722 0.14203 1 
23269 1 -216.073 44.0666 -4.94853 0.0327289 1 
23270 1 -214.536 43.9776 -2.56454 1.81474 5 
23313 1 -155.943 34.1594 -14.1123 9.42722e-05 1 
23316 1 -153.526 32.6321 -14.0484 8.26954e-05 1 
23317 1 -152.107 34.9144 -13.0552 0.000126926 1 
23319 1 -149.77 35.8571 -14.4199 6.65391e-05 1 
23320 1 -149.686 33.3841 -12.9871 7.35663e-05 1 
23321 1 -148.265 35.665 -11.9907 0.000193875 1 
23322 1 -147.351 34.3236 -14.3489 5.41159e-05 1 
23323 1 -145.932 36.6029 -13.3499 0.000118302 1 
23324 1 -145.845 34.1299 -11.9149 0.000200554 1 
23325 1 -242.803 36.408 -10.9122 0.000444234 1 
23326 1 -143.516 35.065 -13.2772 0.00012224 1 
23327 1 -240.476 37.3409 -12.278 0.000197581 1 
23328 1 -142.017 34.8657 -10.8375 0.000517325 1 
23329 1 -238.984 37.1375 -9.84058 0.000693809 1 
23330 1 -238.064 35.7976 -12.2116 0.000260699 1 
23331 1 -236.652 38.0698 -11.2186 0.000480994 1 
23332 1 -236.576 35.5885 -9.78152 0.00112759 1 
23333 1 -235.166 37.8581 -8.80024 0.00306258 1 
23334 1 -234.237 36.5228 -11.1578 0.000597445 1 
23335 1 -232.818 38.7931 -10.1633 0.000521048 1 
23336 1 -232.744 36.3042 -8.74347 0.00337012 1 
23337 1 -231.316 38.5718 -7.74434 0.00316811 1 
23338 1 -230.394 37.2475 -10.0931 0.000656602 1 
23339 1 -228.975 39.5161 -9.09428 0.000574664 1 
23340 1 -228.887 37.0282 -7.65711 0.00658027 1 
23341 1 -227.47 39.2918 -6.65857 0.0052237 1 
23342 1 -226.558 37.9789 -9.02322 0.00054929 1 
23343 1 -225.142 40.2513 -8.03213 0.00458852 1 
23344 1 -225.07 37.7652 -6.58394 0.0108178 1 
23345 1 -223.631 40.0177 -5.63364 0.0827477 1 
23346 1 -222.72 38.7236 -7.96404 0.00475974 1 
23347 1 -221.299 41.0068 -6.95038 0.0137171 1 
23348 1 -221.217 38.5348 -5.52727 0.0163571 1 
23349 1 -219.756 40.798 -4.51143 0.15853 1 
23350 1 -218.871 39.4796 -6.87704 0.0151343 1 
23351 1 -217.475 41.758 -5.91612 0.0353311 1 
23352 1 -217.366 39.2885 -4.37055 0.317364 1 
23353 1 -216.06 41.6089 -3.51912 0.532515 1 
23354 1 -215.04 40.2329 -5.79877 0.0339029 1 
23355 1 -213.641 42.5152 -4.80667 0.0734304 1 
23356 1 -213.485 39.9978 -3.38533 0.329398 1 
23357 1 -212.137 42.3364 -2.44301 5.58085 5 
23358 1 -211.177 40.9821 -4.67171 0.0867655 1 
23359 1 -209.78 43.3018 -3.70877 0.234238 1 
27909 1 4.82087 1.74223 -8.04747 0.00188247 1 
23361 1 -207.472 41.7334 -3.61866 0.542438 1 
23362 1 -206.238 44.0835 -2.94371 7.07198 5 
23365 1 -203.459 42.5942 -2.78995 3.69811 5 
23413 1 -152.526 28.8198 -14.9803 6.39615e-05 1 
23414 1 -151.107 31.1026 -13.9836 6.52236e-05 1 
23417 1 -148.686 29.5705 -13.9168 5.7285e-05 1 
23418 1 -147.265 31.851 -12.9167 8.45384e-05 1 
23420 1 -144.932 32.7879 -14.2779 6.89239e-05 1 
23421 1 -144.847 30.3146 -12.8458 0.000123418 1 
23422 1 -143.429 32.5915 -11.8409 0.000302316 1 
23423 1 -142.517 31.2499 -14.2087 7.75657e-05 1 
23424 1 -141.102 33.5248 -13.2084 0.000137303 1 
23425 1 -141.016 31.0501 -11.7718 0.00031612 1 
23426 1 -139.607 33.321 -10.7715 0.000605307 1 
23427 1 -138.688 31.9828 -13.1429 0.000152464 1 
23428 1 -137.276 34.2531 -12.1484 0.00029503 1 
23429 1 -137.194 31.7747 -10.7111 0.000534305 1 
23430 1 -135.784 34.0393 -9.72339 0.00101787 1 
23431 1 -134.857 32.7091 -12.0847 0.000245287 1 
23432 1 -231.815 34.9777 -11.0924 0.000430653 1 
23433 1 -133.36 32.4934 -9.66085 0.000661892 1 
23434 1 -230.314 34.7591 -8.67122 0.0018815 1 
23435 1 -131.018 33.4359 -11.0213 0.000239606 1 
23436 1 -227.975 35.7078 -10.0217 0.000325413 1 
23437 1 -129.517 33.2169 -8.59089 0.00120381 1 
23438 1 -226.478 35.4904 -7.58784 0.00543082 1 
23439 1 -225.557 34.1724 -9.94891 0.000555738 1 
23440 1 -224.145 36.4493 -8.95198 0.00074515 1 
23441 1 -224.075 33.9684 -7.50702 0.00632781 1 
23442 1 -222.656 36.246 -6.52795 0.00638971 1 
23443 1 -221.729 34.922 -8.88543 0.000713756 1 
23444 1 -220.304 37.2033 -7.88894 0.00200757 1 
23445 1 -220.24 34.7201 -6.468 0.00410566 1 
23446 1 -218.792 37.0028 -5.48577 0.0370854 1 
23447 1 -217.879 35.6755 -7.827 0.00710894 1 
23448 1 -216.447 37.9646 -6.7863 0.026675 1 
23449 1 -216.359 35.4638 -5.43483 0.0837386 1 
23450 1 -214.904 37.7562 -4.3639 0.0920525 1 
23451 1 -214.008 36.4223 -6.70416 0.0174135 1 
23452 1 -212.596 38.7114 -5.71644 0.0141691 1 
23453 1 -212.477 36.2443 -4.24212 0.135553 1 
23454 1 -211.096 38.4714 -3.23843 0.277006 1 
23455 1 -210.182 37.1837 -5.62156 0.0263369 1 
23456 1 -208.786 39.4955 -4.55719 0.166915 1 
23457 1 -208.631 37.0206 -3.26271 1.79085 5 
27900 1 19.1369 8.40439 -2.91473 2.59899 5 
23459 1 -206.373 38.0051 -4.55059 0.142314 1 
23460 1 -204.994 40.3004 -3.63475 0.263193 1 
23461 1 -204.868 37.8175 -2.21773 7.09857 5 
23463 1 -202.552 38.8091 -3.5748 0.104239 1 
23464 1 -201.126 41.1217 -2.62975 1.96505 5 
23467 1 -198.715 39.6576 -2.57628 6.75339 5 
23517 1 -150.106 27.2883 -14.9153 4.91808e-05 1 
23520 1 -147.686 25.7544 -14.848 4.29047e-05 1 
23521 1 -146.267 28.0353 -13.8482 6.20229e-05 1 
23524 1 -143.85 26.4974 -13.7789 6.18974e-05 1 
23525 1 -142.432 28.7751 -12.7763 0.000122688 1 
23527 1 -140.102 29.7098 -14.1418 7.82955e-05 1 
23528 1 -140.019 27.2333 -12.7096 0.000122197 1 
23529 1 -138.605 29.5067 -11.7076 0.000302619 1 
23530 1 -137.687 28.1686 -14.0768 8.00366e-05 1 
23531 1 -136.272 30.4401 -13.0791 0.000141525 1 
23532 1 -136.19 27.962 -11.647 0.000270582 1 
23533 1 -134.775 30.2292 -10.6514 0.000399604 1 
23534 1 -133.853 28.8979 -13.0144 9.99748e-05 1 
23535 1 -132.435 31.167 -12.0172 0.000170854 1 
23536 1 -132.353 28.685 -10.5876 0.000289378 1 
23537 1 -130.932 30.9499 -9.58763 0.00106905 1 
23538 1 -130.013 29.6278 -11.9471 0.000150186 1 
23539 1 -128.597 31.8985 -10.9481 0.000144137 1 
23540 1 -128.508 29.4123 -9.51292 0.00134597 1 
23541 1 -127.098 31.684 -8.51255 0.00138706 1 
23542 1 -126.178 30.3656 -10.8767 0.000166381 1 
23543 1 -124.768 32.6434 -9.87737 0.000647872 1 
23544 1 -124.685 30.1548 -8.44475 0.00206982 1 
23545 1 -123.283 32.4394 -7.45385 0.00195093 1 
23546 1 -122.347 31.1112 -9.81145 0.000639482 1 
23547 1 -219.308 33.3928 -8.82157 0.00168611 1 
23548 1 -120.858 30.904 -7.39595 0.00356102 1 
23549 1 -217.826 33.1911 -6.419 0.0195988 1 
23550 1 -118.503 31.8606 -8.74581 0.00364336 1 
23551 1 -215.438 34.1407 -7.72892 0.0144927 1 
23552 1 -116.993 31.6502 -6.34075 0.0425927 1 
23553 1 -213.929 33.9495 -5.22957 0.182118 1 
23554 1 -213.013 32.6256 -7.61697 0.0214335 1 
23555 1 -211.6 34.903 -6.61357 0.00490948 1 
23556 1 -211.473 32.4278 -5.15699 0.13662 1 
23557 1 -210.086 34.7214 -4.12186 0.256179 1 
23558 1 -209.195 33.3973 -6.53857 0.0108322 1 
23559 1 -207.757 35.6679 -5.55975 0.0416959 1 
23560 1 -207.671 33.2026 -4.1318 0.241587 1 
23561 1 -206.177 35.5637 -3.07138 1.01347 5 
23562 1 -205.348 34.1946 -5.48143 0.0293215 1 
23563 1 -203.902 36.48 -4.49082 0.0729473 1 
23564 1 -203.768 34.0059 -3.0988 0.213747 1 
27899 1 17.6815 6.1191 -3.93127 0.110089 1 
23566 1 -201.505 34.9624 -4.40605 0.191288 1 
23567 1 -200.19 37.3126 -3.53987 0.323302 1 
27963 1 5.40799 2.84582 -3.30971 5.36272 5 
23570 1 -197.742 35.7614 -3.54348 0.383838 1 
23625 1 -145.268 24.2183 -14.7791 4.16602e-05 1 
23628 1 -142.851 22.6804 -14.7102 4.55236e-05 1 
23629 1 -141.435 24.9574 -13.7107 7.24842e-05 1 
23632 1 -139.021 23.416 -13.6448 0.000106091 1 
23633 1 -137.606 25.6902 -12.6463 0.000163477 1 
23635 1 -135.27 26.6268 -14.0123 7.07008e-05 1 
23636 1 -135.19 24.1458 -12.584 0.000142762 1 
23637 1 -133.772 26.4168 -11.5852 0.000197705 1 
23638 1 -132.851 25.0855 -13.9465 5.29353e-05 1 
23639 1 -131.433 27.3572 -12.9476 7.01974e-05 1 
23640 1 -131.351 24.8732 -11.5193 0.000124716 1 
23641 1 -129.931 27.1432 -10.52 0.000208634 1 
23642 1 -129.013 25.819 -12.8791 4.34169e-05 1 
23643 1 -127.594 28.092 -11.8773 0.000119113 1 
23644 1 -127.511 25.6061 -10.4507 0.000194113 1 
23645 1 -126.092 27.88 -9.44405 0.00157566 1 
23646 1 -125.173 26.5587 -11.8061 0.000125176 1 
23647 1 -123.758 28.8335 -10.8063 0.000208752 1 
23648 1 -123.673 26.3515 -9.37037 0.00164459 1 
23649 1 -122.263 28.6242 -8.37747 0.00216239 1 
23650 1 -121.334 27.3034 -10.7316 0.000274744 1 
23651 1 -119.919 29.5795 -9.73669 0.000786781 1 
23652 1 -119.826 27.0956 -8.29917 0.0014789 1 
23653 1 -118.411 29.3693 -7.31031 0.00493563 1 
23654 1 -117.488 28.0526 -9.65285 0.000534761 1 
23655 1 -116.068 30.3338 -8.65685 0.00458156 1 
23656 1 -115.979 27.8472 -7.21195 0.00151793 1 
23657 1 -114.549 30.1249 -6.22741 0.0292578 1 
23658 1 -113.647 28.8092 -8.56257 0.00339595 1 
23659 1 -112.23 31.1021 -7.55247 0.00810004 1 
23660 1 -112.145 28.6107 -6.10037 0.0131056 1 
23661 1 -110.751 30.9304 -5.06863 0.0975292 1 
23662 1 -109.837 29.595 -7.4711 0.00674714 1 
23663 1 -206.785 31.8866 -6.49197 0.00824591 1 