ITEM: TIMESTEP
0
ITEM: NUMBER OF ATOMS
8347
ITEM: BOX BOUNDS xy xz yz pp pp ss
-9.992467581 91.102497222 -9.992467581
0 51.294900737 0
-169.650441688058 183.4092851058079 0
ITEM: ATOMS id type x y z c_csym c_cna 
99235 3 78.7628 49.2735 -0.244645 7.71885 5 
99234 3 -8.99096 46.9972 -0.175365 8.58079 5 
99233 3 -7.51355 49.2018 0.954117 8.85699 5 
99232 3 -6.75411 45.9519 -1.18337 7.41797 5 
99231 3 -4.40477 45.9367 0.149687 11.7682 5 
99230 3 -0.279576 40.8075 0.729568 3.6663 5 
31914 1 3.31016 1.31534 -14.5653 5.52101e-05 1 
31916 1 0.699925 1.76214 -13.4776 0.000133277 1 
33276 1 12.7727 2.19425 -14.8478 0.000125535 1 
33277 1 10.7891 0.134589 -14.9835 9.51166e-05 1 
33278 1 10.425 0.317074 -12.1542 0.000310531 1 
33380 1 10.1582 2.65357 -13.7719 0.00013855 1 
33382 1 8.17441 0.591068 -13.9038 0.00010657 1 
33383 1 7.54455 3.10903 -12.6914 0.000174198 1 
33384 1 7.81027 0.774313 -11.0705 0.000483112 1 
33385 1 5.56181 1.04331 -12.8202 0.000159405 1 
33386 1 5.20224 1.22415 -9.98513 0.000744822 1 
33483 1 7.27668 5.44818 -14.3119 0.000100788 1 
33485 1 5.29275 3.38299 -14.439 5.94176e-05 1 
33486 1 4.6627 5.90114 -13.2293 0.000118838 1 
33487 1 4.93381 3.56045 -11.6075 0.000276855 1 
33488 1 2.68099 3.83345 -13.3526 6.50316e-05 1 
33489 1 2.95294 1.49086 -11.7339 0.000218634 1 
33490 1 2.32644 4.01033 -10.5211 0.000512593 1 
33491 1 2.60136 1.66761 -8.89994 0.0013348 1 
33492 1 0.347989 1.93397 -10.6505 0.000860377 1 
33493 1 0.00734131 2.10652 -7.83274 0.00607644 1 
33583 1 4.39198 8.24285 -14.8473 0.000108748 1 
33585 1 2.40875 6.17619 -14.9703 3.70419e-05 1 
33586 1 1.77633 8.69477 -13.7572 0.000140712 1 
33587 1 2.04938 6.35327 -12.1395 0.000219431 1 
33588 1 0.0712543 4.28186 -12.2662 0.000241567 1 
34634 1 25.0974 0.243788 -14.572 0.000142991 1 
34636 1 22.4891 0.695228 -13.4795 0.000185305 1 
34741 1 19.6116 3.50014 -14.0213 0.000244479 1 
34742 1 19.8819 1.15172 -12.3918 0.000495428 1 
34743 1 17.6351 1.44582 -14.1585 0.000220428 1 
34744 1 17.2742 1.61631 -11.317 0.000903127 1 
34842 1 16.7343 6.30717 -14.567 0.000154047 1 
34843 1 17.0036 3.96179 -12.9426 0.000352331 1 
34844 1 14.7549 4.2517 -14.7079 0.00014523 1 
34845 1 15.0247 1.9095 -13.0883 0.000404838 1 
34846 1 14.3931 4.42974 -11.8741 0.000577984 1 
34847 1 14.6601 2.09114 -10.2609 0.00238431 1 
34848 1 12.4092 2.3754 -12.0191 0.000460468 1 
34849 1 12.6756 0.0389434 -10.4034 0.000701307 1 
34850 1 12.0379 2.56603 -9.19505 0.00224613 1 
34851 1 12.3006 0.235644 -7.58397 0.00468271 1 
34852 1 10.0544 0.508598 -9.32299 0.00165216 1 
34853 1 9.67313 0.716621 -6.48197 0.0122376 1 
34947 1 14.1256 6.76971 -13.4924 0.000196039 1 
34949 1 12.1429 4.71348 -13.6355 0.000204799 1 
34950 1 11.5152 7.23278 -12.4214 0.000314529 1 
34951 1 11.7794 4.89771 -10.8058 0.000811185 1 
34952 1 9.52971 5.1725 -12.5619 0.00029551 1 
34953 1 9.79277 2.83746 -10.9414 0.000573186 1 
34954 1 9.16796 5.35647 -9.73468 0.0015276 1 
34955 1 9.42051 3.02906 -8.10346 0.00358939 1 
34956 1 7.18228 3.29065 -9.85538 0.00120251 1 
34957 1 7.44281 0.963395 -8.22563 0.00314873 1 
34958 1 6.82046 3.47371 -7.00257 0.0100685 1 
34959 1 7.07227 1.14839 -5.35536 0.0374335 1 
34960 1 4.84452 1.41065 -7.13964 0.0054054 1 
34961 1 4.4969 1.61205 -4.26514 0.0608086 1 
35048 1 11.247 9.57146 -14.0408 0.000164441 1 
35050 1 9.26218 7.51149 -14.1799 0.000184088 1 
35051 1 8.63449 10.0309 -12.9711 0.00036619 1 
35052 1 8.90405 7.69223 -11.354 0.000748689 1 
35053 1 6.6478 7.96725 -13.1043 0.00024644 1 
35054 1 6.91706 5.62688 -11.485 0.000382708 1 
35055 1 6.29028 8.148 -10.2846 0.000857873 1 
35056 1 6.55974 5.80701 -8.66081 0.00230892 1 
35057 1 4.30473 6.07861 -10.4033 0.000674933 1 
35058 1 4.57873 3.73879 -8.77058 0.0021305 1 
35059 1 3.95113 6.25438 -7.58259 0.00559273 1 
35060 1 4.23168 3.91803 -5.91842 0.0175531 1 
35061 1 1.98047 4.18979 -7.68436 0.00525713 1 
35062 1 2.26175 1.84912 -6.05783 0.00840089 1 
35063 1 1.65618 4.37443 -4.82759 0.051971 1 
35064 1 1.91538 2.04559 -3.20913 0.069872 1 
35065 1 81.0311 51.2671 -3.39493 0.300584 1 
35147 1 8.36356 12.3715 -14.588 0.000180582 1 
35149 1 6.37767 10.3082 -14.7208 0.000161856 1 
35150 1 5.74763 12.8285 -13.513 0.000233695 1 
35151 1 6.01816 10.4885 -11.899 0.000446377 1 
35152 1 3.76077 10.7619 -13.6385 0.00028361 1 
35153 1 4.03134 8.42096 -12.0225 0.000449145 1 
35154 1 3.39854 10.9424 -10.8172 0.00160572 1 
35155 1 3.67324 8.60015 -9.20593 0.00327999 1 
35156 1 1.41427 8.87419 -10.9248 0.000962889 1 
35157 1 1.6934 6.53344 -9.30562 0.00277282 1 
35158 1 1.05458 9.05878 -8.08636 0.00933574 1 
35159 1 1.34498 6.71691 -6.45639 0.0363038 1 
35238 1 2.86274 15.622 -14.0464 0.000192696 1 
35239 1 3.13055 13.2815 -12.4308 0.00047229 1 
35240 1 0.877093 13.5523 -14.1658 0.000162836 1 
35241 1 1.14378 11.2125 -12.5434 0.000492211 1 
35242 1 0.515657 13.7281 -11.3352 0.000632823 1 
35243 1 0.778465 11.3929 -9.7044 0.00393958 1 
35316 1 -0.0197105 18.4134 -14.5767 0.000119831 1 
35317 1 0.249612 16.0695 -12.9587 0.00026948 1 
35996 1 34.5441 1.13444 -14.8877 3.63864e-05 1 
36099 1 31.9357 1.57754 -13.7943 5.25868e-05 1 
36101 1 29.3262 2.01866 -12.7024 0.0002126 1 
36102 1 17.3533 51.2495 -12.8237 0.000215597 1 
36103 1 26.9833 0.107786 -9.97839 0.00104324 1 
36201 1 29.0569 4.37009 -14.3283 0.000124907 1 
36203 1 27.0764 2.30474 -14.4499 0.00011413 1 
36204 1 26.4456 4.81405 -13.2391 0.000369384 1 
36205 1 26.7138 2.45961 -11.6089 0.000626797 1 
36206 1 24.4657 2.75247 -13.3546 0.000342951 1 
36207 1 24.7347 0.401655 -11.7239 0.00063623 1 
36208 1 24.0994 2.90529 -10.5055 0.00199601 1 
36209 1 24.3703 0.551703 -8.86633 0.00407602 1 
36210 1 22.1266 0.852199 -10.629 0.000477282 1 
36211 1 21.7631 0.996103 -7.77371 0.00419801 1 
36304 1 26.1774 7.16782 -14.8621 0.000121103 1 
36306 1 24.1971 5.10423 -14.984 0.000137458 1 
36307 1 23.566 7.61657 -13.7706 0.000238678 1 
36308 1 23.8319 5.26132 -12.1437 0.000705132 1 
36309 1 21.5875 5.55651 -13.8926 0.000231864 1 
36310 1 21.8563 3.20438 -12.262 0.000381567 1 
36311 1 21.2209 5.71461 -11.0481 0.000708712 1 
36312 1 21.4888 3.3566 -9.41202 0.00107212 1 
36313 1 19.2478 3.66351 -11.1748 0.000744176 1 
36314 1 19.5182 1.31233 -9.53962 0.00200321 1 
36315 1 18.8772 3.82441 -8.32466 0.00227386 1 
36316 1 19.1399 1.47547 -6.68571 0.0119284 1 
36317 1 16.9064 1.78888 -8.47438 0.00381849 1 
36318 1 16.5218 1.95236 -5.62175 0.0414116 1 
36319 1 14.1198 0.177938 -3.1713 2.60933 5 
36408 1 20.6898 10.4212 -14.3006 0.000172229 1 
36409 1 20.9558 8.06963 -12.677 0.000395873 1 
36410 1 18.712 8.36309 -14.4313 0.00016683 1 
36411 1 18.9795 6.01402 -12.8049 0.000363143 1 
36412 1 18.3489 8.52862 -11.5864 0.000482148 1 
36413 1 18.6127 6.17753 -9.95764 0.00102089 1 
36414 1 16.3722 6.47874 -11.7248 0.000474188 1 
36415 1 16.6389 4.13418 -10.0998 0.00127098 1 
36416 1 16.006 6.65214 -8.8775 0.00162272 1 
36417 1 16.2656 4.30621 -7.25115 0.00749937 1 
36418 1 14.0259 4.6165 -9.04299 0.00331428 1 
36419 1 14.2853 2.28504 -7.44835 0.0189577 1 
36420 1 13.6446 4.81884 -6.21713 0.0195992 1 
36421 1 13.9006 2.50366 -4.66323 0.169465 1 
36422 1 11.6549 2.77347 -6.37609 0.0105321 1 
36423 1 11.9022 0.449749 -4.77244 0.0549164 1 
36424 1 11.2465 2.97966 -3.5609 0.110798 1 
36425 1 11.6072 0.62998 -1.90066 6.14015 5 
36426 1 9.29014 0.9696 -3.61422 0.15509 1 
36511 1 17.8153 13.2252 -14.8368 0.000137547 1 
36512 1 18.0837 10.8774 -13.2122 0.000237184 1 
36513 1 15.8372 11.1681 -14.9742 0.000110996 1 
36514 1 16.1055 8.82314 -13.3497 0.000206346 1 
36515 1 15.4794 11.3382 -12.1321 0.000333299 1 
36516 1 15.7441 8.99487 -10.5039 0.000635767 1 
36517 1 13.4985 9.28676 -12.2757 0.000323259 1 
36518 1 13.7637 6.94978 -10.6547 0.000731467 1 
36519 1 13.1391 9.46617 -9.43245 0.00166693 1 
36520 1 13.3967 7.13963 -7.81239 0.00317152 1 
36521 1 11.1546 7.41913 -9.58656 0.00136133 1 
36522 1 11.4094 5.09358 -7.97558 0.00369257 1 
36523 1 10.7905 7.6175 -6.73959 0.00987398 1 
36524 1 11.0288 5.30694 -5.13422 0.0201891 1 
36525 1 8.80601 5.54658 -6.9098 0.011351 1 
36526 1 9.04166 3.23336 -5.24373 0.0386508 1 
36527 1 8.43911 5.74905 -4.10506 0.180193 1 
36528 1 8.63835 3.46328 -2.28397 4.9498 5 
36529 1 6.47518 3.63258 -4.12375 0.204477 1 
36530 1 6.72515 1.35588 -2.38492 0.303774 1 
36531 1 6.13095 3.96795 -0.959187 3.5982 5 
36532 1 4.15206 1.85701 -1.39958 6.86035 5 
36610 1 15.2098 13.6834 -13.7574 0.000216761 1 
36612 1 13.2298 11.628 -13.8999 0.00016315 1 
36613 1 12.6025 14.1453 -12.6889 0.000447466 1 
36614 1 12.8737 11.8027 -11.0648 0.000659167 1 
36615 1 10.6194 12.09 -12.8305 0.000229813 1 
36616 1 10.8898 9.75145 -11.2083 0.0006183 1 
36617 1 10.2625 12.2723 -10.0021 0.000965407 1 
36618 1 10.5332 9.93933 -8.3716 0.00365293 1 
36619 1 8.27834 10.2147 -10.1503 0.00172382 1 
36620 1 8.54852 7.87906 -8.53347 0.00444559 1 
36621 1 7.92352 10.4101 -7.34184 0.010418 1 
36622 1 8.19474 8.0798 -5.72935 0.0366245 1 
36623 1 5.93796 8.33323 -7.47565 0.00247554 1 
36624 1 6.20468 5.99012 -5.84668 0.0175 1 
36625 1 5.60323 8.522 -4.67121 0.0701411 1 
36626 1 5.83417 6.12557 -3.06668 2.63605 5 
36627 1 3.60272 6.42262 -4.76908 0.0604203 1 
36628 1 3.93095 4.10206 -3.0149 0.325623 1 
36629 1 3.34972 6.58918 -1.92968 7.39228 5 
36630 1 1.27306 4.53917 -1.98543 0.926863 5 
36704 1 12.3299 16.4896 -14.3091 0.00023769 1 
36706 1 10.3477 14.4317 -14.45 0.000137516 1 
36707 1 9.71702 16.9528 -13.2407 0.000238242 1 
36708 1 9.98952 14.6113 -11.6236 0.000305255 1 
36709 1 7.73336 14.8925 -13.3796 0.000242524 1 
36710 1 8.00523 12.5528 -11.7652 0.000617492 1 
36711 1 7.37259 15.0782 -10.5593 0.000782939 1 
36712 1 7.64623 12.7429 -8.95144 0.00331326 1 
36713 1 5.38691 13.0123 -10.6935 0.000453403 1 
36714 1 5.66031 10.6742 -9.08574 0.00107452 1 
36715 1 5.02668 13.2027 -7.87734 0.00187147 1 
36716 1 5.31635 10.866 -6.28064 0.00729993 1 
36717 1 3.03998 11.1243 -8.00949 0.015589 1 
36718 1 3.32931 8.77296 -6.40947 0.032401 1 
36719 1 2.69861 11.2962 -5.24537 0.166828 1 
36720 1 3.02618 8.93016 -3.65512 0.35473 1 
36721 1 0.707624 9.24587 -5.23231 0.105224 1 
36722 1 1.04993 6.90782 -3.56268 0.524 1 
36723 1 0.450178 9.38958 -2.27605 6.53377 5 
36724 1 1.06559 6.81268 -0.45418 7.70804 5 
36790 1 9.44536 19.295 -14.8555 0.000143946 1 
36792 1 7.46227 17.2336 -14.9941 0.000121224 1 
36793 1 6.83137 19.755 -13.7819 0.000139725 1 
36794 1 7.10111 17.4159 -12.1699 0.000280947 1 
36795 1 4.84762 17.6902 -13.9173 0.000131894 1 
36796 1 5.1172 15.3504 -12.3046 0.000258313 1 
36797 1 4.48713 17.8733 -11.0921 0.00028117 1 
36798 1 4.75663 15.5372 -9.48314 0.000477327 1 
36799 1 2.50305 15.8018 -11.2228 0.000584344 1 
36800 1 2.76907 13.4639 -9.61082 0.00251641 1 
36801 1 2.14665 15.9857 -8.40228 0.0027385 1 
36802 1 2.4133 13.6483 -6.80331 0.0257912 1 
36803 1 0.154101 13.9062 -8.50078 0.00350499 1 
36804 1 0.409179 11.5813 -6.84484 0.0398932 1 
36805 1 0.0334283 11.758 -3.93907 1.09472 5 
36870 1 3.94823 22.5512 -14.3185 9.49935e-05 1 
36871 1 4.21813 20.2112 -12.7042 0.000130579 1 
36872 1 1.96429 20.4838 -14.4502 8.62264e-05 1 
36873 1 2.23454 18.1421 -12.8365 0.000212878 1 
36874 1 1.60751 20.6627 -11.6243 0.000226619 1 
36875 1 1.87858 18.3233 -10.0118 0.000679824 1 
36876 1 -0.106768 16.2455 -10.1332 0.00106151 1 
36933 1 1.0628 25.3458 -14.8514 0.000101185 1 
36934 1 1.33484 23.0041 -13.2388 0.00011813 1 
37462 1 41.3837 2.48228 -14.1283 0.000179557 1 
37463 1 41.6568 0.133471 -12.5064 0.000302689 1 
37464 1 39.4031 0.41192 -14.2423 7.91626e-05 1 
37465 1 39.0441 0.580071 -11.4063 0.000582412 1 
37556 1 38.4999 5.27545 -14.6502 0.000121803 1 
37557 1 38.7701 2.92815 -13.0297 0.000275046 1 
37558 1 36.5213 3.20467 -14.7669 8.85114e-05 1 
37559 1 36.7929 0.857128 -13.1444 0.000103888 1 
37560 1 36.1592 3.37311 -11.9263 0.00042687 1 
37561 1 36.4343 1.02637 -10.3051 0.000504235 1 
37562 1 34.1845 1.30017 -12.0474 0.000119956 1 
37563 1 33.826 1.4678 -9.20633 0.000664328 1 
37657 1 35.8894 5.71972 -13.5492 0.000239931 1 
37659 1 33.9131 3.64821 -13.6702 9.83909e-05 1 
37660 1 33.2829 6.16157 -12.45 0.000382638 1 
37661 1 33.5526 3.8143 -10.8272 0.000438276 1 
37662 1 31.3063 4.08874 -12.5789 0.000194444 1 
37663 1 31.5762 1.73902 -10.954 0.000275936 1 
37664 1 30.9467 4.24797 -9.74173 0.00161891 1 
37665 1 31.215 1.89948 -8.11229 0.00263685 1 
37666 1 28.9648 2.17137 -9.86205 0.001558 1 
37667 1 28.5984 2.31146 -7.01694 0.0158233 1 
37668 1 18.8827 51.2469 -5.38211 0.0275705 1 
37669 1 26.6208 0.251017 -7.12608 0.00654216 1 
37670 1 26.27 0.375265 -4.26656 0.0523221 1 
37760 1 33.0145 8.50926 -14.0743 0.000162142 1 
37762 1 31.0366 6.43919 -14.2017 8.31235e-05 1 
37763 1 30.409 8.95146 -12.9843 0.000159892 1 
37764 1 30.6786 6.60013 -11.363 0.000516405 1 
37765 1 28.4282 6.88166 -13.1157 0.000265461 1 
37766 1 28.6967 4.52634 -11.4945 0.000990847 1 
37767 1 28.069 7.0372 -10.2887 0.00177768 1 
37768 1 28.3323 4.67386 -8.67457 0.00964988 1 
37769 1 26.0795 4.96483 -10.4098 0.00275175 1 
37770 1 26.3472 2.60431 -8.7669 0.00380682 1 
37771 1 25.6987 5.1039 -7.59699 0.0184141 1 
37772 1 25.9652 2.73984 -5.92539 0.0254146 1 
37773 1 23.7249 3.04582 -7.64356 0.014427 1 
37774 1 24.0081 0.682771 -5.98538 0.0342322 1 
37775 1 23.3592 3.16612 -4.74983 0.144278 1 
37776 1 23.6188 0.759603 -3.09664 2.59068 5 
37777 1 21.3937 1.11296 -4.93947 0.0563338 1 
37778 1 20.9256 1.1563 -2.1704 9.09578 5 
37862 1 30.1381 11.3017 -14.6066 4.8135e-05 1 
37864 1 28.1585 9.23423 -14.7351 5.90596e-05 1 
37865 1 27.5297 11.7469 -13.5176 7.53301e-05 1 
37866 1 27.8008 9.39419 -11.901 0.000349616 1 
37867 1 25.548 9.68083 -13.6471 0.000186266 1 
37868 1 25.8152 7.32534 -12.0307 0.000871345 1 
37869 1 25.187 9.83802 -10.8178 0.00150305 1 
37870 1 25.4485 7.47464 -9.21377 0.0066367 1 
37871 1 23.1989 7.7724 -10.9345 0.00127242 1 
37872 1 23.4579 5.41015 -9.30118 0.0046179 1 
37873 1 22.8235 7.91926 -8.09914 0.00785141 1 
37874 1 23.067 5.54528 -6.44541 0.038348 1 
37875 1 20.8473 5.86528 -8.19986 0.00168162 1 
37876 1 21.1163 3.49508 -6.56318 0.00877258 1 
37877 1 20.4686 6.00812 -5.35017 0.0152528 1 
37878 1 20.751 3.61416 -3.76253 0.232672 1 
37879 1 18.4907 3.96898 -5.46809 0.0178924 1 
37880 1 18.735 1.58509 -3.81099 9.94863 5 
37881 1 18.037 4.09155 -2.62975 7.57308 5 
37882 1 16.1558 2.06426 -2.70457 5.72409 5 
37883 1 14.5236 0.682318 -0.58574 12.402 5 
37964 1 24.6486 14.5441 -14.0459 7.21516e-05 1 
37965 1 24.919 12.1931 -12.4282 0.000246604 1 
37966 1 22.669 12.4817 -14.1731 0.000101552 1 
37967 1 22.9359 10.1295 -12.554 0.000345123 1 
37968 1 22.3075 12.6407 -11.3317 0.00044182 1 
37969 1 22.57 10.2841 -9.71702 0.00195693 1 
37970 1 20.3266 10.5825 -11.4556 0.000698743 1 
37971 1 20.5875 8.22722 -9.83268 0.00126277 1 
37972 1 19.9601 10.7386 -8.60263 0.00314462 1 
37973 1 20.2141 8.37859 -6.98484 0.00334681 1 
37974 1 17.982 8.69113 -8.73544 0.00114344 1 
37975 1 18.2394 6.33477 -7.10375 0.00256002 1 
37976 1 17.6101 8.85164 -5.87812 0.00371574 1 
37977 1 17.8635 6.48724 -4.24955 0.0235857 1 
37978 1 15.6337 6.82534 -6.02331 0.00640793 1 
37979 1 15.8608 4.46845 -4.39611 0.0522307 1 
37980 1 15.2474 6.99116 -3.17027 0.0513529 1 
37981 1 15.4896 4.64482 -1.49143 6.22721 2 
37982 1 13.2427 5.04853 -3.38696 0.139178 1 
37983 1 13.4503 2.74155 -1.93658 6.61405 5 
37984 1 12.6667 5.3 -0.53203 8.32806 5 
38059 1 21.7692 17.3425 -14.5746 0.000141448 1 
38060 1 22.0391 14.9927 -12.9513 0.000157225 1 
38061 1 19.7922 15.2832 -14.7036 0.000115082 1 
38062 1 20.0612 12.9338 -13.0795 0.000248632 1 
38063 1 19.432 15.4441 -11.8562 0.000311542 1 
38064 1 19.7003 13.0923 -10.2304 0.000926418 1 
38065 1 17.4566 13.3906 -11.9907 0.000413589 1 
38066 1 17.723 11.0418 -10.3635 0.000636798 1 
38067 1 17.0985 13.5534 -9.13763 0.00144575 1 
38068 1 17.3601 11.2021 -7.50718 0.00191111 1 
38069 1 15.1222 11.5091 -9.28536 0.00136611 1 
38070 1 15.3786 9.16888 -7.64906 0.00196552 1 
38071 1 14.7682 11.683 -6.42952 0.0120139 1 
38072 1 15.0114 9.34339 -4.78111 0.0196541 1 
38073 1 12.7758 9.65385 -6.57479 0.0149674 1 
38074 1 13.0177 7.3402 -4.96342 0.0118818 1 
38075 1 12.3829 9.87034 -3.71727 5.50035 5 
38076 1 12.6245 7.5632 -2.10227 4.81041 5 
38077 1 10.4175 7.84164 -3.85979 0.153914 1 
38078 1 10.5815 5.50213 -2.28331 0.712723 5 
38079 1 10.1685 7.9366 -0.828774 5.33352 5 
38080 1 7.95296 6.14053 -1.38944 10.6191 5 
38150 1 19.1619 17.7942 -13.4832 0.000195739 1 
38152 1 17.1865 15.7385 -13.6166 0.000298857 1 
38153 1 16.5558 18.251 -12.3974 0.000508687 1 
38154 1 16.8279 15.902 -10.7662 0.00126449 1 
38155 1 14.5816 16.1989 -12.541 0.000501654 1 
38156 1 14.854 13.853 -10.9144 0.000934769 1 
38157 1 14.2258 16.3683 -9.6989 0.00271357 1 
38158 1 14.5019 14.023 -8.06409 0.00778726 1 
38159 1 12.2475 14.3217 -9.86299 0.0037793 1 
38160 1 12.5194 11.9797 -8.23365 0.0066639 1 
38161 1 11.8933 14.5061 -7.06408 0.0433434 1 
38162 1 12.1558 12.1746 -5.43034 0.060699 1 
38163 1 9.89947 12.4683 -7.17429 0.00817026 1 
38164 1 10.1689 10.1398 -5.52763 0.0416459 1 
38165 1 9.51824 12.6547 -4.3348 0.277091 1 
38166 1 9.84321 10.3351 -2.54794 5.51855 5 
38167 1 7.58933 10.6391 -4.55122 0.173379 1 
38168 1 7.8482 8.35231 -2.97309 0.779502 1 
38169 1 7.27932 11.0384 -1.84623 2.30319 1 
38170 1 7.54374 8.90143 -0.309494 11.1044 5 
38171 1 5.31173 8.51658 -1.77066 5.9121 5 
38235 1 16.2835 20.6005 -14.0249 0.00025729 1 
38237 1 14.3083 18.5455 -14.1646 0.000242846 1 
38238 1 13.676 21.063 -12.9473 0.000389796 1 
38239 1 13.9494 18.7161 -11.3249 0.000978193 1 
38240 1 11.6987 19.0098 -13.0966 0.000457724 1 
38241 1 11.9726 16.6659 -11.4812 0.00136059 1 
38242 1 11.3369 19.1914 -10.2723 0.00266853 1 
38243 1 11.6117 16.8492 -8.66882 0.0103283 1 
38244 1 9.35464 17.1369 -10.4195 0.000604545 1 
38245 1 9.62755 14.7992 -8.80079 0.00178963 1 
38246 1 8.98725 17.3314 -7.60497 0.00360114 1 
38247 1 9.25907 15.0031 -5.96951 0.0390092 1 
38248 1 7.01094 15.2765 -7.74396 0.0054041 1 
38249 1 7.28442 12.955 -6.15404 0.0377033 1 
38250 1 6.6406 15.5079 -4.93239 0.0648302 1 
38251 1 6.96095 13.2393 -3.36951 0.555618 1 
38252 1 4.68644 13.3873 -5.04682 0.0520544 1 
38253 1 4.99728 11.0143 -3.47033 0.256224 1 
38254 1 4.42134 13.5148 -2.18804 0.869369 1 
38255 1 4.80216 10.9992 -0.615617 7.00061 5 
38256 1 2.42195 11.4645 -2.54522 2.74579 5 
38257 1 2.76612 9.18636 -0.950761 9.14935 5 
38315 1 13.4044 23.4089 -14.5688 0.000167011 1 
38317 1 11.4264 21.3533 -14.7125 0.000163516 1 
38318 1 10.7956 23.8727 -13.4942 0.000207159 1 
38319 1 11.0659 21.5321 -11.8802 0.000647178 1 
38320 1 8.81463 21.8162 -13.6409 0.000210191 1 
38321 1 9.08405 19.4766 -12.0298 0.00045565 1 
38322 1 8.45266 22.0015 -10.8126 0.000763145 1 
38323 1 8.71643 19.6671 -9.20934 0.00204844 1 
38324 1 6.46871 19.9399 -10.9553 0.000444521 1 
38325 1 6.73676 17.6062 -9.3471 0.00104103 1 
38326 1 6.1014 20.1319 -8.12161 0.00302358 1 
38327 1 6.36894 17.8095 -6.51936 0.00896498 1 
38328 1 4.1279 18.0612 -8.26223 0.00141556 1 
38329 1 4.39876 15.7248 -6.65758 0.00524877 1 
38330 1 3.7807 18.2397 -5.41723 0.025303 1 
38331 1 4.05889 15.909 -3.80835 0.147036 1 
38332 1 1.79871 16.172 -5.59411 0.0282782 1 
38333 1 2.07537 13.8142 -4.04464 0.266152 1 
38334 1 1.48495 16.3533 -2.83797 0.373148 1 
38335 1 1.74275 13.9518 -1.36589 6.11799 5 
38391 1 7.91485 26.6755 -14.0377 0.00014212 1 
38392 1 8.18511 24.3373 -12.4224 0.000289495 1 
38393 1 5.93219 24.6156 -14.1809 0.000148064 1 
38394 1 6.20202 22.2765 -12.5682 0.000227976 1 
38395 1 5.5745 24.7981 -11.3536 0.000502984 1 
38396 1 5.84216 22.462 -9.74124 0.000966522 1 
38397 1 3.59049 22.7319 -11.4931 0.000249124 1 
38398 1 3.85939 20.3946 -9.87309 0.000959533 1 
38399 1 3.23611 22.9141 -8.66963 0.0016644 1 
38400 1 3.50336 20.579 -7.02451 0.0123192 1 
38401 1 1.2562 20.8441 -8.7957 0.00172995 1 
38402 1 1.53026 18.5101 -7.18675 0.00417737 1 
38403 1 0.912288 21.0317 -5.95594 0.0254701 1 
38404 1 1.20524 18.7082 -4.36888 0.0639485 1 
38453 1 5.03043 29.475 -14.5805 0.000134618 1 
38454 1 5.30271 27.136 -12.9662 0.000268554 1 
38455 1 3.04696 27.4122 -14.7182 0.000122404 1 
38456 1 3.31885 25.072 -13.106 0.000179932 1 
38457 1 2.68786 27.5945 -11.8936 0.000299682 1 
38458 1 2.96261 25.2551 -10.2845 0.000505277 1 
38459 1 0.703939 25.5257 -12.0278 0.000314792 1 
38460 1 0.979332 23.1839 -10.4165 0.000460149 1 
38461 1 0.348093 25.7078 -9.21189 0.00205528 1 
38462 1 0.628889 23.3642 -7.60091 0.00397066 1 
38508 1 2.41517 29.9327 -13.5041 0.000158972 1 
38510 1 0.431288 27.866 -13.6379 0.000189195 1 
38511 1 0.0708485 28.0486 -10.8157 0.000822873 1 
38767 1 56.3393 0.136449 -14.981 9.49093e-05 1 
38832 1 53.7249 0.592886 -13.9018 0.000106744 1 
38834 1 51.1126 1.04448 -12.8195 0.000169101 1 
38905 1 50.8438 3.38445 -14.438 6.03664e-05 1 
38907 1 48.8612 1.31574 -14.5657 6.58095e-05 1 
38908 1 48.2323 3.83352 -13.3543 6.49739e-05 1 
38909 1 48.5037 1.49057 -11.735 0.000243684 1 
38910 1 46.2505 1.76155 -13.4796 0.000153996 1 
38911 1 45.8977 1.93193 -10.6536 0.00088843 1 
38912 1 43.5694 0.0166732 -7.94021 0.00541084 1 
38988 1 47.9604 6.17712 -14.9716 2.6276e-05 1 
38991 1 45.3472 6.62618 -13.885 7.45884e-05 1 
38992 1 45.6218 4.2802 -12.271 0.000258097 1 
38993 1 43.3658 4.55433 -14.0095 0.000149203 1 
38994 1 43.6396 2.2056 -12.3929 0.000358661 1 
38995 1 43.0091 4.72649 -11.1877 0.000822207 1 
38996 1 43.2895 2.37211 -9.57477 0.001674 1 
38997 1 41.0253 2.65076 -11.3044 0.00147108 1 
38998 1 41.3042 0.297315 -9.68033 0.00219604 1 
38999 1 40.6716 2.81654 -8.50058 0.0151963 1 
39000 1 40.9661 0.456337 -6.86486 0.0167065 1 
39001 1 38.6896 0.751328 -8.56758 0.00646659 1 
39002 1 38.3575 0.919364 -5.71533 0.0674667 1 
39085 1 42.4628 9.41775 -14.4071 0.000100072 1 
39086 1 42.7335 7.07439 -12.7954 0.000266258 1 
39087 1 40.4811 7.34702 -14.5313 0.00013057 1 
39088 1 40.7514 5.00084 -12.9181 0.000459158 1 
39089 1 40.1192 7.52046 -11.7011 0.000730922 1 
39090 1 40.3907 5.17343 -10.1001 0.00352027 1 
39091 1 38.1361 5.44561 -11.8165 0.000668782 1 
39092 1 38.4065 3.09832 -10.1943 0.00268225 1 
39093 1 37.768 5.61663 -8.9838 0.00443503 1 
39094 1 38.0379 3.27167 -7.34797 0.0325021 1 
39095 1 35.7957 3.54504 -9.07952 0.00246299 1 
39096 1 36.0824 1.20338 -7.46662 0.00598904 1 
39097 1 35.4268 3.73115 -6.21997 0.0261668 1 
39098 1 35.7671 1.41193 -4.64217 0.120465 1 
39099 1 33.4744 1.64222 -6.36833 0.00643337 1 
39100 1 33.1306 1.79548 -3.55539 0.178086 1 
39101 1 20.8424 51.2209 -0.965141 12.8942 5 
39186 1 39.5834 12.2056 -14.9299 5.82619e-05 1 
39187 1 39.8514 9.86295 -13.3115 0.000171846 1 
39189 1 37.8689 7.79156 -13.4328 0.000194478 1 
39190 1 37.2418 10.3053 -12.2114 0.000193302 1 
39191 1 37.5055 7.96221 -10.5958 0.000905137 1 
39192 1 35.2599 8.23341 -12.3287 0.000377848 1 
39193 1 35.5249 5.8886 -10.7045 0.00131202 1 
39194 1 34.8971 8.40004 -9.47789 0.00221323 1 
39195 1 35.1538 6.06131 -7.84834 0.00761374 1 
39196 1 32.9212 6.32763 -9.59957 0.00240698 1 
39197 1 33.189 3.98401 -7.98092 0.0028732 1 
39198 1 32.5508 6.4992 -6.73384 0.0163124 1 
39199 1 32.8102 4.1666 -5.14182 0.0947403 1 
39200 1 30.5775 4.40433 -6.91316 0.0207184 1 
39201 1 30.8506 2.06493 -5.26366 0.0584191 1 
39202 1 30.1246 4.56048 -4.11824 0.208157 1 
39203 1 30.3474 2.23268 -2.39072 3.56823 5 
39204 1 28.2078 2.42708 -4.18373 1.02115 5 
39205 1 28.5085 0.101946 -2.4718 4.43735 5 
39206 1 28.2133 2.26315 -0.51349 7.6628 5 
39207 1 25.9016 0.55418 -1.36975 8.14783 5 
39289 1 36.9741 12.6496 -13.8334 5.29295e-05 1 
39291 1 34.9934 10.5794 -13.9532 6.73145e-05 1 
39292 1 34.3666 13.0922 -12.7368 5.9281e-05 1 
39293 1 34.6358 10.7445 -11.1103 0.000243771 1 
39294 1 32.3874 11.0213 -12.8565 0.000204446 1 
39295 1 32.656 8.67313 -11.2276 0.000987951 1 
39296 1 32.0324 11.1831 -10.0104 0.00119306 1 
39297 1 32.2986 8.83658 -8.36854 0.00657462 1 
39298 1 30.0543 9.11111 -10.1445 0.00101038 1 
39299 1 30.3201 6.75855 -8.52666 0.00335275 1 
39300 1 29.7035 9.26663 -7.30319 0.00585993 1 
39301 1 29.9518 6.91585 -5.69616 0.0305586 1 
39302 1 27.7061 7.18774 -7.48215 0.0132558 1 
39303 1 27.9401 4.81635 -5.89624 0.0869861 1 
39304 1 27.3174 7.31572 -4.71295 0.114198 1 
39305 1 27.4597 4.88423 -3.16317 8.17267 5 
39306 1 25.2771 5.22391 -4.79616 0.126082 1 
39307 1 25.6251 2.8089 -3.04658 1.20201 5 
39308 1 24.912 5.26367 -1.95448 5.13153 5 
39309 1 25.5748 3.25544 -0.280078 12.0157 5 
39310 1 22.9854 3.11276 -1.80949 5.09738 5 
39384 1 34.0947 15.4403 -14.3607 3.60685e-05 1 
39386 1 32.1165 13.3704 -14.4818 5.00801e-05 1 
39387 1 31.4867 15.8841 -13.2658 5.95512e-05 1 
39388 1 31.7603 13.5338 -11.6414 0.000196229 1 
39389 1 29.5091 13.8142 -13.3898 5.62759e-05 1 
39390 1 29.7821 11.4632 -11.7668 0.000212517 1 
39391 1 29.1539 13.9747 -10.5516 0.000240188 1 
39392 1 29.4301 11.6205 -8.9268 0.00127532 1 
39393 1 27.1736 11.9058 -10.6818 0.000414036 1 
39394 1 27.446 9.54971 -9.07473 0.00223037 1 
39395 1 26.824 12.0568 -7.84704 0.00334387 1 
39396 1 27.1043 9.69497 -6.25933 0.0225595 1 
39397 1 24.8281 9.98468 -8.00611 0.0145892 1 
39398 1 25.0726 7.60335 -6.42436 0.045812 1 
39399 1 24.4717 10.101 -5.24369 0.121873 1 
39400 1 24.6669 7.69693 -3.66608 0.296797 1 
39401 1 22.4363 8.04121 -5.25231 0.0687265 1 
39402 1 22.6882 5.66935 -3.52045 0.481916 1 
39403 1 22.0348 8.24166 -2.32863 7.04404 5 
39404 1 20.1107 6.1105 -2.54194 0.300291 1 
39405 1 20.2235 3.61134 -1.07466 10.312 5 
39475 1 31.2144 18.2329 -14.8885 3.62485e-05 1 
39478 1 28.6063 18.6762 -13.7954 5.04409e-05 1 
39479 1 28.8785 16.3266 -12.173 8.53167e-05 1 
39480 1 26.6277 16.6085 -13.9199 6.5145e-05 1 
39481 1 26.8999 14.2582 -12.2989 0.000114668 1 
39482 1 26.2681 16.767 -11.0791 0.000313317 1 
39483 1 26.5439 14.4145 -9.46121 0.000576846 1 
39484 1 24.2888 14.7025 -11.2055 0.000323701 1 
39485 1 24.5609 12.3482 -9.59519 0.00189397 1 
39486 1 23.9312 14.8527 -8.36584 0.00181592 1 
39487 1 24.2112 12.489 -6.77324 0.0173393 1 
39488 1 21.9467 12.791 -8.48879 0.00201678 1 
39489 1 22.1974 10.4271 -6.88038 0.0131653 1 
39490 1 21.5897 12.9306 -5.64355 0.0259309 1 
39491 1 21.8189 10.5559 -4.05668 7.08494 5 
39492 1 19.5838 10.8908 -5.73703 0.0377129 1 
39493 1 19.8418 8.5441 -4.14361 0.0647889 1 
39494 1 19.2194 11.0744 -2.74585 2.33018 5 
39495 1 19.5197 8.64783 -1.3462 4.46238 5 
39496 1 17.2485 9.00599 -3.02483 0.0883784 1 
39562 1 25.7274 21.4692 -14.3294 0.000123376 1 
39563 1 25.9973 19.1175 -12.7038 0.000206207 1 
39564 1 23.7476 19.4038 -14.4516 0.000109627 1 
39565 1 24.0175 17.0533 -12.8257 0.000204201 1 
39566 1 23.3855 19.5587 -11.6108 0.000614375 1 
39567 1 23.6555 17.2065 -9.98047 0.00100705 1 
39568 1 21.4074 17.5005 -11.7269 0.000636121 1 
39569 1 21.678 15.1482 -10.1051 0.000537386 1 
39570 1 21.0437 17.6506 -8.86938 0.00406194 1 
39571 1 21.3208 15.2941 -7.25681 0.0051603 1 
39572 1 19.0716 15.5977 -9.00276 0.00144849 1 
39573 1 19.3415 13.2416 -7.37264 0.0051053 1 
39574 1 18.7223 15.7287 -6.14006 0.00976811 1 
39575 1 19.0012 13.3642 -4.49237 0.081557 1 
39576 1 16.7481 13.7045 -6.27432 0.00560372 1 
39577 1 17.0082 11.3622 -4.63083 0.0711458 1 
39578 1 16.4146 13.8791 -3.40693 3.16384 5 
39579 1 16.459 11.4874 -1.84493 4.36345 5 
39580 1 14.3594 11.8512 -3.59276 0.362679 1 
39581 1 14.5667 9.48647 -1.89056 3.54682 5 
39642 1 22.8472 24.2675 -14.8628 0.000119972 1 
39643 1 23.1164 21.9135 -13.2405 0.00036319 1 
39644 1 20.8677 22.204 -14.9855 0.000138352 1 
39645 1 21.1374 19.8519 -13.357 0.000349352 1 
39646 1 20.5031 22.3613 -12.1455 0.000712541 1 
39647 1 20.772 20.0048 -10.5081 0.00205153 1 
39648 1 18.5287 20.3042 -12.2653 0.000405141 1 
39649 1 18.8006 17.9512 -10.6334 0.000500345 1 
39650 1 18.1624 20.4566 -9.41584 0.00114037 1 
39651 1 18.4385 18.0952 -7.77831 0.00403199 1 
39652 1 16.1941 18.4115 -9.54687 0.00194211 1 
39653 1 16.4687 16.061 -7.903 0.00777377 1 
39654 1 15.8185 18.5749 -6.69543 0.010431 1 
39655 1 16.1078 16.2213 -5.0516 6.95281 5 
39656 1 13.863 16.5397 -6.85549 0.0192464 1 
39657 1 14.1624 14.2029 -5.19767 0.114763 1 
39658 1 13.5065 16.6647 -3.94319 5.73316 5 
39659 1 13.9689 14.3233 -2.25756 4.08321 5 
39660 1 11.5344 14.6954 -4.33308 0.621083 1 
39661 1 11.7311 12.4266 -2.67085 12.0804 5 
39662 1 11.3688 15.0703 -1.69988 11.4801 5 
39663 1 9.39439 12.9635 -1.27784 7.24986 5 
39718 1 20.2358 24.7168 -13.7713 0.000238395 1 
39720 1 18.2583 22.6569 -13.8945 0.000239888 1 
39721 1 17.6254 25.1705 -12.6776 0.000398964 1 
39722 1 17.8923 22.8152 -11.0505 0.000732258 1 
39723 1 15.6503 23.1153 -12.8071 0.00037794 1 
39724 1 15.921 20.7641 -11.1795 0.000761301 1 
39725 1 15.2843 23.279 -9.9604 0.00103322 1 
39726 1 15.5519 20.9252 -8.3302 0.00217371 1 
39727 1 13.3129 21.2355 -10.1055 0.00145815 1 
39728 1 13.5846 18.8881 -8.4841 0.00428777 1 
39729 1 12.9412 21.4069 -7.25679 0.00872256 1 
39730 1 13.2041 19.0503 -5.63237 0.0464524 1 
39731 1 10.9668 19.3844 -7.46421 0.0215065 1 
39732 1 11.2556 17.0464 -5.88965 0.130376 1 
39733 1 10.5903 19.5998 -4.68524 0.186792 1 
39734 1 10.8394 17.2715 -3.19295 2.19528 5 
39735 1 8.60364 17.5418 -4.79634 0.0546182 1 
39736 1 8.89774 15.1823 -3.11537 6.27313 5 
39737 1 8.34701 17.6971 -1.9277 5.82762 5 
39738 1 6.29205 15.8344 -2.10202 5.83529 5 
39739 1 6.84318 13.7126 -0.637459 7.30398 5 
39789 1 17.3579 27.5221 -14.2997 0.000172958 1 
39791 1 15.3809 25.4645 -14.4314 0.00017149 1 
39792 1 14.7509 27.9791 -13.2101 0.000229389 1 
39793 1 15.0179 25.6305 -11.5865 0.000483779 1 
39794 1 12.7738 25.9257 -13.3488 0.000208692 1 
39795 1 13.043 23.5811 -11.7271 0.000516355 1 
39796 1 12.4124 26.098 -10.5029 0.00063293 1 
39797 1 12.6777 23.7545 -8.88011 0.00178881 1 
39798 1 10.4342 24.0537 -10.6568 0.000772633 1 
39799 1 10.7007 21.7192 -9.05097 0.00375306 1 
39800 1 10.068 24.2435 -7.81517 0.00341672 1 
39801 1 10.3215 21.9211 -6.22712 0.0227716 1 
39802 1 8.0845 22.1975 -7.9835 0.00338239 1 
39803 1 8.34048 19.8725 -6.39424 0.0097433 1 
39804 1 7.70449 22.4082 -5.14333 0.0180205 1 
39805 1 7.94235 20.0724 -3.58465 0.129623 1 
39806 1 5.73171 20.3322 -5.26534 0.0384811 1 
39807 1 6.01194 18.0513 -3.66193 0.128815 1 
39808 1 5.32655 20.5678 -2.30653 4.94021 5 
39809 1 3.48378 18.4231 -2.48594 0.482411 1 