ITEM: TIMESTEP
0
ITEM: NUMBER OF ATOMS
11778
ITEM: BOX BOUNDS xy xz yz pp pp ss
0.0000000000000000e+00 1.5374235865399999e+02 8.9195979979000001e+01
0.0000000000000000e+00 1.0221390392500000e+02 0.0000000000000000e+00
-1.1188326570446706e+02 1.1807925652201621e+02 0.0000000000000000e+00
ITEM: ATOMS id type x y z c_csym c_cna 
42562 1 68.2124 50.9956 -13.0947 0.000425535 1 
37954 1 100.484 50.9955 -13.0846 0.000409993 1 
33173 1 60.8381 50.296 -14.6689 0.00018015 1 
33176 1 63.2506 50.9108 -13.2708 0.000242012 1 
33235 1 64.1431 48.2129 -13.5983 0.000214377 1 
34815 1 53.3477 50.7532 -13.6217 0.000880307 1 
34901 1 55.1265 45.3558 -14.3263 0.000503622 1 
34902 1 54.2363 48.0571 -13.972 0.000782367 1 
34904 1 55.8853 50.2168 -14.8486 0.000380268 1 
34905 1 56.6426 48.6791 -12.5562 0.00094158 1 
34907 1 58.2932 50.8337 -13.4424 0.000392977 1 
34977 1 56.0188 42.6506 -14.6789 0.000295022 1 
34980 1 58.4337 43.2767 -13.2639 0.000488751 1 
34981 1 57.5368 45.9804 -12.9106 0.000714598 1 
34982 1 60.0819 45.4392 -14.1259 0.000350813 1 
34983 1 59.1861 48.1386 -13.7829 0.000391966 1 
34984 1 59.947 46.5994 -11.4964 0.000867888 1 
34985 1 59.0496 49.2949 -11.1481 0.000945957 1 
34986 1 61.5965 48.7532 -12.3774 0.000388065 1 
34988 1 61.4589 49.9061 -9.74842 0.00085332 1 
35043 1 60.2264 37.8622 -13.9556 0.000431119 1 
35044 1 59.331 40.5701 -13.6124 0.000388368 1 
35045 1 61.8764 40.0322 -14.8082 0.000288352 1 
35046 1 60.9794 42.7366 -14.4682 0.000301815 1 
35047 1 61.7504 41.1936 -12.1888 0.000700922 1 
35048 1 60.8484 43.8978 -11.8445 0.000694817 1 
35049 1 63.394 43.354 -13.0483 0.000482527 1 
35050 1 62.494 46.0551 -12.7132 0.000406531 1 
35051 1 63.2613 44.5118 -10.4224 0.000902736 1 
35052 1 62.3572 47.2116 -10.0854 0.000863764 1 
35053 1 64.0077 49.3649 -10.9784 0.000486608 1 
35054 1 63.873 50.5136 -8.35822 0.00150765 1 
35095 1 62.009 32.4436 -14.6262 0.000443571 1 
35096 1 61.119 35.1532 -14.2936 0.000482557 1 
35099 1 63.5432 35.7809 -12.8687 0.000909018 1 
35100 1 62.6492 38.4879 -12.5297 0.000784138 1 
35101 1 64.2933 40.6521 -13.3828 0.000572167 1 
35102 1 64.1671 41.8096 -10.7553 0.00138994 1 
35138 1 62.8981 29.7338 -14.9533 0.000383032 1 
35139 1 64.432 33.072 -13.2062 0.000722504 1 
36371 1 107.997 50.5613 -14.0833 0.000478153 1 
36463 1 45.22 45.1533 -14.7444 0.000325079 1 
36464 1 44.3353 47.8568 -14.4135 0.000393639 1 
36467 1 46.7543 48.4851 -12.9943 0.000878566 1 
36469 1 48.4084 50.661 -13.8408 0.00121512 1 
36553 1 48.5193 43.077 -13.6735 0.00050026 1 
36554 1 47.6362 45.7816 -13.3336 0.000542715 1 
36555 1 50.176 45.2565 -14.5352 0.000315681 1 
36556 1 49.2921 47.9597 -14.1874 0.000536533 1 
36557 1 50.0511 46.4157 -11.9098 0.00100754 1 
36558 1 49.1701 49.119 -11.5535 0.00197212 1 
36559 1 51.7014 48.591 -12.7537 0.00169211 1 
36561 1 51.5751 49.7516 -10.0953 0.00621555 1 
36634 1 50.2927 37.6705 -14.3449 0.000412886 1 
36635 1 49.4049 40.3726 -14.0108 0.00051505 1 
36637 1 51.0615 42.5516 -14.8817 0.000264646 1 
36638 1 51.8199 41.0006 -12.6149 0.000792889 1 
36639 1 50.9337 43.7092 -12.2654 0.00071005 1 
36640 1 53.4752 43.1828 -13.4717 0.000479214 1 
36641 1 52.5871 45.8895 -13.1131 0.000975943 1 
36642 1 53.3457 44.3465 -10.8485 0.00154818 1 
36643 1 52.4586 47.0545 -10.4697 0.00437417 1 
36644 1 54.9945 46.5198 -11.6903 0.00153356 1 
36645 1 54.1043 49.218 -11.3235 0.00231801 1 
36646 1 54.8584 47.6843 -9.03697 0.00488812 1 
36647 1 53.9693 50.3731 -8.65148 0.00673105 1 
36648 1 56.5053 49.8362 -9.90596 0.00257155 1 
36711 1 51.1822 34.9701 -14.6784 0.000295064 1 
36714 1 53.5976 35.5904 -13.2897 0.000614467 1 
36715 1 52.7082 38.2941 -12.9551 0.000788908 1 
36716 1 55.2563 37.7667 -14.1653 0.000472511 1 
36717 1 54.3654 40.4744 -13.8227 0.000442314 1 
36718 1 55.1284 38.9223 -11.5646 0.00133181 1 
36719 1 54.2368 41.6339 -11.2144 0.00120623 1 
36720 1 56.7835 41.105 -12.4146 0.000589766 1 
36721 1 55.8883 43.8141 -12.0563 0.000834524 1 
36722 1 56.6544 42.2697 -9.80041 0.00136409 1 
36723 1 55.7551 44.9809 -9.42388 0.00253339 1 
36724 1 58.3006 44.4411 -10.6376 0.00122225 1 
36725 1 57.4004 47.1433 -10.2715 0.00180974 1 
36726 1 58.1608 45.6063 -8.00035 0.00334799 1 
36727 1 57.2577 48.3025 -7.61577 0.00559951 1 
36728 1 59.8067 47.7584 -8.85758 0.00225759 1 
36729 1 58.9093 50.4462 -8.50316 0.00241656 1 
36730 1 59.6563 48.9093 -6.20252 0.00817753 1 
36781 1 55.3818 30.1818 -13.9516 0.000350443 1 
36782 1 54.4883 32.8872 -13.6222 0.000445118 1 
36783 1 57.0385 32.353 -14.8329 0.000347485 1 
36784 1 56.1471 35.06 -14.5016 0.000427748 1 
36785 1 56.9085 33.5074 -12.2359 0.000874857 1 
36786 1 56.019 36.2139 -11.9034 0.00118755 1 
36787 1 58.5703 35.6852 -13.1037 0.000829269 1 
36788 1 57.6781 38.395 -12.7635 0.000745647 1 
36789 1 58.4475 36.8431 -10.5123 0.00268613 1 
36790 1 57.5525 39.5566 -10.1633 0.00202616 1 
36791 1 60.1029 39.0251 -11.3478 0.00110032 1 
36792 1 59.2029 41.7339 -10.9969 0.000888883 1 
36793 1 59.978 40.1914 -8.73878 0.00326722 1 
36794 1 59.0705 42.8993 -8.37742 0.00178996 1 
36795 1 61.6215 42.3561 -9.56605 0.00142648 1 
36796 1 60.712 45.0605 -9.21607 0.00178947 1 
36797 1 61.4823 43.523 -6.94097 0.0046839 1 
36798 1 60.5622 46.2192 -6.57619 0.00528058 1 
36799 1 63.1219 45.669 -7.79365 0.00206297 1 
36800 1 62.2142 48.3666 -7.45411 0.00218651 1 
36801 1 62.9658 46.8247 -5.17122 0.0126118 1 
36802 1 62.0749 49.5121 -4.82225 0.0110956 1 
36836 1 57.1771 24.7685 -14.5924 0.000248798 1 
36837 1 56.2787 27.4745 -14.275 0.000291819 1 
36840 1 58.6952 28.0888 -12.8805 0.000596131 1 
36841 1 57.7999 30.799 -12.5626 0.000685566 1 
36842 1 60.3514 30.2648 -13.7608 0.000556821 1 
36843 1 59.4607 32.9753 -13.4359 0.000685959 1 
36844 1 60.2238 31.4199 -11.1734 0.00145712 1 
36845 1 59.336 34.1322 -10.8476 0.00208839 1 
36846 1 61.8878 33.6024 -12.0292 0.00143402 1 
36847 1 60.9983 36.3143 -11.6927 0.0014716 1 
36848 1 61.7709 34.7643 -9.44166 0.00515999 1 
36849 1 60.8821 37.4786 -9.09634 0.00433881 1 
36850 1 63.4273 36.9448 -10.2531 0.00289233 1 
36851 1 62.5278 39.6513 -9.91081 0.00219911 1 
36852 1 63.3168 38.1123 -7.6307 0.0121861 1 
36853 1 62.4021 40.8124 -7.28712 0.00626436 1 
36854 1 64.0355 42.9668 -8.12739 0.00214455 1 
36855 1 63.8976 44.1162 -5.50115 0.0165205 1 
36881 1 58.0738 22.0662 -14.9079 0.000235141 1 
36884 1 60.4887 22.6786 -13.4976 0.000432981 1 
36885 1 59.5927 25.3809 -13.1901 0.000538227 1 
36886 1 62.1362 24.8489 -14.3914 0.000394886 1 
36887 1 61.2436 27.5551 -14.0784 0.000492013 1 
36888 1 62.0095 25.9958 -11.7921 0.00105628 1 
36889 1 61.1152 28.7065 -11.4879 0.00117333 1 
36890 1 63.663 28.177 -12.6766 0.000935926 1 
36891 1 62.775 30.8895 -12.3573 0.0011152 1 
36892 1 63.5389 29.3322 -10.0914 0.00258469 1 
36893 1 62.6542 32.0484 -9.77328 0.00376749 1 
36894 1 64.3162 34.2354 -10.5965 0.00231931 1 
36895 1 64.2049 35.4039 -7.98268 0.00632249 1 
36918 1 62.2709 17.2875 -14.126 0.000386179 1 
36919 1 61.3814 19.9815 -13.8084 0.000412091 1 
36921 1 63.0275 22.1471 -14.7039 0.000319706 1 
36922 1 63.7937 20.5946 -12.3969 0.000665034 1 
36923 1 62.903 23.2919 -12.0929 0.000765362 1 
36924 1 64.428 26.6164 -10.396 0.00242433 1 
36941 1 64.0436 11.8961 -14.7848 0.000365734 1 
36942 1 63.158 14.5931 -14.4522 0.000359065 1 
37857 1 98.0713 50.3749 -14.4806 0.00017727 1 
37950 1 98.9621 47.6746 -14.804 0.000148856 1 
37953 1 101.373 48.2933 -13.4053 0.00030486 1 
37955 1 103.031 50.4652 -14.2929 0.000347936 1 
38039 1 38.6106 42.8907 -14.0468 0.000258917 1 
38040 1 102.264 45.5914 -13.7258 0.000265503 1 
38041 1 40.2619 45.0592 -14.9392 0.000228234 1 
38042 1 103.919 47.7617 -14.6162 0.000277532 1 
38043 1 104.675 46.2106 -12.3306 0.000568055 1 
38044 1 103.786 48.9154 -12.0122 0.00068094 1 
38045 1 106.335 48.3851 -13.2156 0.000531953 1 
38047 1 106.204 49.5404 -10.6189 0.0011989 1 
38121 1 40.3947 37.4962 -14.6974 0.000298142 1 
38122 1 39.5033 40.1922 -14.3699 0.000277405 1 
38125 1 41.9104 40.8072 -12.9662 0.000526795 1 
38126 1 41.0191 43.5072 -12.6482 0.000542815 1 
38127 1 43.5627 42.9776 -13.863 0.000428773 1 
38128 1 42.6753 45.6806 -13.5392 0.000462454 1 
38129 1 43.4307 44.1266 -11.2566 0.00110203 1 
38130 1 42.5437 46.8333 -10.938 0.000973902 1 
38131 1 45.0926 46.3059 -12.1365 0.000926181 1 
38132 1 44.2092 49.0114 -11.8084 0.0011397 1 
38133 1 44.966 47.4599 -9.53864 0.00264627 1 
38134 1 44.0825 50.1667 -9.2155 0.00318553 1 
38135 1 46.6337 49.6398 -10.3805 0.00372382 1 
38137 1 46.514 50.792 -7.7771 0.0234466 1 
38202 1 43.6909 35.419 -13.6186 0.000458137 1 
38203 1 42.8011 38.1119 -13.2885 0.000457762 1 
38204 1 45.3397 37.5803 -14.5149 0.000283244 1 
38205 1 44.4509 40.2774 -14.1875 0.000369161 1 
38206 1 45.2076 38.7256 -11.8907 0.00086114 1 
38207 1 44.3188 41.4227 -11.5731 0.00118053 1 
38208 1 46.8616 40.8972 -12.7936 0.000835431 1 
38209 1 45.9762 43.6006 -12.4657 0.00087117 1 
38210 1 46.7311 42.0426 -10.1899 0.00290527 1 
38211 1 45.8476 44.752 -9.86486 0.00261533 1 
38212 1 48.3923 44.2312 -11.0631 0.00145782 1 
38213 1 47.5132 46.9367 -10.7195 0.00165616 1 
38214 1 48.2665 45.3894 -8.45276 0.00571042 1 
38215 1 47.3935 48.0894 -8.10779 0.00688563 1 
38216 1 49.9294 47.5756 -9.27519 0.00355373 1 
38217 1 49.0495 50.2777 -8.90568 0.00890833 1 
38218 1 49.8048 48.728 -6.62389 0.0164554 1 
38220 1 51.4456 50.9031 -7.4093 0.0275846 1 
38273 1 45.4722 30.0262 -14.3028 0.000432437 1 
38274 1 44.581 32.7247 -13.9576 0.00047827 1 
38276 1 46.2291 34.8846 -14.8472 0.000239041 1 
38277 1 46.9869 33.3422 -12.5517 0.000621936 1 
38278 1 46.0968 36.0337 -12.2162 0.000659924 1 
38279 1 48.6378 35.5017 -13.451 0.000407683 1 
38280 1 47.7488 38.1979 -13.1208 0.000594491 1 
38281 1 48.5048 36.6465 -10.8285 0.00120278 1 
38282 1 47.6169 39.3407 -10.5076 0.0018345 1 
38283 1 50.1616 38.8178 -11.7359 0.0013574 1 
38284 1 49.2756 41.5222 -11.4042 0.00174879 1 
38285 1 50.0333 39.9603 -9.13863 0.00511066 1 
38286 1 49.1495 42.672 -8.80985 0.00682526 1 
38287 1 51.6926 42.1556 -10.0098 0.00192962 1 
38288 1 50.8073 44.8689 -9.64546 0.00181139 1 
38289 1 51.5707 43.3105 -7.40449 0.00395968 1 
38290 1 50.6797 46.0275 -7.01267 0.00549159 1 
38291 1 53.2141 45.5133 -8.21187 0.00593697 1 
38292 1 52.3288 48.2178 -7.79472 0.0213111 1 
38293 1 53.0823 46.665 -5.53954 0.0223508 1 
38294 1 52.188 49.364 -5.07134 0.199407 1 
38295 1 54.7169 48.834 -6.35177 0.0141369 1 
38297 1 54.5242 49.9619 -3.60544 0.287127 1 
38340 1 47.2599 24.6174 -14.9952 0.000241908 1 
38341 1 46.3652 27.3233 -14.6502 0.000321477 1 
38344 1 48.7744 27.945 -13.2427 0.000470738 1 
38345 1 47.8789 30.6466 -12.8957 0.00060936 1 
38346 1 50.4216 30.1057 -14.1246 0.000304334 1 
38347 1 49.5284 32.8054 -13.7862 0.000322544 1 
38348 1 50.2858 31.2621 -11.4994 0.000726595 1 
38349 1 49.3943 33.9559 -11.1589 0.000789151 1 
38350 1 51.9396 33.4216 -12.3975 0.000545532 1 
38351 1 51.0498 36.1187 -12.0653 0.000872861 1 
38352 1 51.8075 34.5685 -9.78094 0.00141263 1 
38353 1 50.92 37.2599 -9.45778 0.00318226 1 
38354 1 53.4681 36.7386 -10.6888 0.00193518 1 
38355 1 52.5798 39.444 -10.356 0.00227343 1 
38356 1 53.3448 37.8808 -8.10134 0.0073001 1 
38357 1 52.4564 40.5939 -7.76735 0.00543541 1 
38358 1 55.0026 40.0783 -8.97199 0.00438795 1 
38359 1 54.1091 42.7969 -8.60682 0.00351798 1 
38360 1 54.8758 41.2428 -6.38712 0.0219389 1 
38361 1 53.9787 43.9598 -5.99179 0.0148364 1 
38362 1 56.5224 43.4377 -7.17517 0.00466691 1 
38363 1 55.6143 46.1473 -6.77284 0.013661 1 
38364 1 56.3696 44.6144 -4.53026 0.0767308 1 
38365 1 55.4448 47.2823 -4.05701 0.0440558 1 
38366 1 58.0002 46.7666 -5.34164 0.0201145 1 
38367 1 57.0926 49.4411 -4.92943 0.0346427 1 
38368 1 57.8123 47.8586 -2.65233 0.110166 1 
38369 1 57.0486 50.5376 -2.27165 0.152377 1 
38370 1 59.5345 50.0462 -3.54424 0.033578 1 
38406 1 50.573 22.5321 -13.922 0.000417569 1 
38407 1 49.6734 25.2393 -13.5853 0.000373702 1 
38408 1 52.2177 24.6959 -14.7933 0.000210286 1 
38409 1 51.3185 27.4018 -14.4614 0.000251344 1 
38410 1 52.0852 25.8542 -12.179 0.000544581 1 
38411 1 51.1827 28.5612 -11.8426 0.000682293 1 
38412 1 53.73 28.0159 -13.0641 0.000401455 1 
38413 1 52.8323 30.7212 -12.7324 0.000463281 1 
38414 1 53.5911 29.1731 -10.4546 0.0010413 1 
38415 1 52.6959 31.8751 -10.1164 0.00110002 1 
38416 1 55.2466 31.3361 -11.3498 0.000845412 1 
38417 1 54.3563 34.0384 -11.0187 0.00113345 1 
38418 1 55.1136 32.4881 -8.74854 0.00205821 1 
38419 1 54.2307 35.1831 -8.41933 0.00334008 1 
38420 1 56.7817 34.6592 -9.6454 0.0020803 1 
38421 1 55.8953 37.3639 -9.31553 0.00416022 1 
38422 1 56.6665 35.8036 -7.06184 0.00523193 1 
38423 1 55.7821 38.5053 -6.74951 0.023547 1 
38424 1 58.3307 38.0006 -7.93388 0.010437 1 
38425 1 57.4246 40.7224 -7.56158 0.00742657 1 
38426 1 58.2237 39.1553 -5.37249 0.0419858 1 
38427 1 57.2797 41.892 -4.93722 0.0557803 1 
38428 1 59.8424 41.3605 -6.12236 0.0129895 1 
38429 1 58.9259 44.06 -5.74871 0.00650351 1 
38430 1 59.7019 42.522 -3.48483 0.0606729 1 
38431 1 58.7454 45.1854 -3.11703 0.119453 1 
38432 1 61.322 44.6795 -4.29235 0.038673 1 
38433 1 60.3902 47.3545 -3.92109 0.0312476 1 
38434 1 61.0553 45.7751 -1.60879 1.40291 5 
38435 1 60.2656 48.501 -1.30881 2.01121 5 
38436 1 62.788 47.9491 -2.54927 0.1089 1 
38437 1 61.9929 50.6515 -2.19124 0.114929 1 
38438 1 62.6522 49.0777 0.13925 8.34579 5 
38463 1 52.3639 17.1198 -14.5841 0.000537639 1 
38464 1 51.4703 19.8252 -14.2541 0.000530151 1 
38467 1 53.8899 20.4422 -12.8289 0.000635288 1 
38468 1 52.9894 23.1468 -12.5059 0.000529961 1 
38469 1 55.5323 22.6039 -13.7061 0.000330109 1 
38470 1 54.6314 25.3086 -13.3878 0.000348434 1 
38471 1 55.4029 23.7545 -11.0942 0.000926309 1 
38472 1 54.4954 26.4637 -10.7819 0.000890344 1 
38473 1 57.0452 25.9186 -11.9889 0.000659622 1 
38474 1 56.1432 28.6284 -11.6753 0.000717669 1 
38475 1 56.9066 27.0723 -9.39719 0.00151801 1 
38476 1 56.0032 29.7842 -9.08027 0.0017037 1 
38477 1 58.5606 29.2423 -10.2934 0.00134639 1 
38478 1 57.6675 31.9537 -9.97411 0.00160767 1 
38479 1 58.4217 30.401 -7.71702 0.0035282 1 
38480 1 57.5416 33.107 -7.38849 0.00365782 1 
38481 1 60.0978 32.5768 -8.59979 0.0045849 1 
38482 1 59.2172 35.288 -8.2718 0.00760602 1 
38483 1 59.9822 33.7341 -6.04227 0.0201972 1 
38484 1 59.1114 36.4403 -5.71737 0.0363795 1 
38485 1 61.662 35.9307 -6.86557 0.0182358 1 
38486 1 60.7707 38.6471 -6.50256 0.0140886 1 
38487 1 61.5583 37.102 -4.29701 0.0913172 1 
38488 1 60.6679 39.8265 -3.90481 0.0459759 1 
38489 1 63.2109 39.2604 -4.98781 0.0540238 1 
38490 1 62.2582 41.9897 -4.67871 0.034651 1 
38491 1 63.1061 40.4652 -2.40692 0.725572 1 
38492 1 62.0716 43.1267 -2.02113 0.165853 1 
38493 1 63.7426 45.2604 -2.93172 0.330681 1 
38494 1 63.4441 46.2582 -0.435084 8.98329 5 
38512 1 53.2536 14.4163 -14.9137 0.000456923 1 
38515 1 55.6762 15.0417 -13.4809 0.000751949 1 
38516 1 54.7856 17.741 -13.1529 0.000753154 1 
38517 1 57.3224 17.2057 -14.3465 0.000431077 1 
38518 1 56.4295 19.9033 -14.0243 0.000382752 1 
38519 1 57.2024 18.3574 -11.717 0.000942133 1 
38520 1 56.3058 21.0527 -11.4032 0.000888517 1 
38521 1 58.8445 20.5154 -12.6029 0.000544315 1 
38522 1 57.947 23.2137 -12.2953 0.000534701 1 
38523 1 58.7193 21.6599 -9.98355 0.00116451 1 
38524 1 57.8153 24.36 -9.69226 0.00157854 1 
38525 1 60.3619 23.8225 -10.8898 0.00125232 1 
38526 1 59.4609 26.5291 -10.5967 0.00130202 1 
38527 1 60.2305 24.9674 -8.29942 0.00316696 1 
38528 1 59.3235 27.6829 -8.02201 0.00329946 1 
38529 1 61.8796 27.1457 -9.20945 0.00217705 1 
38530 1 60.9845 29.861 -8.91313 0.00277372 1 
38531 1 61.7472 28.3025 -6.64554 0.00783468 1 
38532 1 60.8505 31.021 -6.35741 0.00892353 1 
38533 1 63.4138 30.4937 -7.52365 0.00794221 1 
38534 1 62.538 33.2107 -7.20626 0.0160196 1 
38535 1 63.284 31.6637 -4.97665 0.0247782 1 
38536 1 62.4417 34.3788 -4.66461 0.0798246 1 
38537 1 64.1023 36.5821 -5.35532 0.0382395 1 
38538 1 64.0217 37.7156 -2.62365 6.24883 5 
38551 1 57.4433 9.64312 -14.152 0.000415717 1 
38552 1 56.5615 12.343 -13.8141 0.00060908 1 
38554 1 58.2111 14.5092 -14.6749 0.000414084 1 
38555 1 58.9788 12.9704 -12.3751 0.000875385 1 
38556 1 58.0932 15.664 -12.0407 0.000950838 1 
38557 1 60.6256 15.1294 -13.2429 0.000517526 1 
38558 1 59.7372 17.822 -12.9177 0.000535812 1 
38559 1 60.5051 16.2818 -10.6004 0.000914544 1 
38560 1 59.6155 18.9694 -10.2832 0.00105242 1 
38561 1 62.1489 18.4362 -11.4913 0.000870976 1 
38562 1 61.258 21.126 -11.186 0.00115482 1 
38563 1 62.0257 19.5839 -8.85109 0.00341332 1 
38564 1 61.1342 22.2666 -8.56899 0.00569059 1 
38565 1 63.6706 21.738 -9.77891 0.00155819 1 
38566 1 62.7773 24.4359 -9.49285 0.00214179 1 
38567 1 63.5497 22.8807 -7.17216 0.0102159 1 
38568 1 62.6457 25.5914 -6.91389 0.00400896 1 
38569 1 64.3016 27.7739 -7.82545 0.00774325 1 
38570 1 64.1761 28.9518 -5.27983 0.0431053 1 
38577 1 59.2054 4.23656 -14.8325 0.000275704 1 
38578 1 58.3239 6.94115 -14.4922 0.00033582 1 
38581 1 60.7421 7.57101 -13.0632 0.000593253 1 
38582 1 59.8612 10.2726 -12.7177 0.000605871 1 
38583 1 62.3952 9.73594 -13.9162 0.000513874 1 
38584 1 61.511 12.4344 -13.577 0.000485598 1 
38585 1 62.2748 10.8975 -11.2764 0.00122088 1 
38586 1 61.3912 13.5919 -10.9339 0.000942747 1 
38587 1 63.922 13.052 -12.1452 0.00053709 1 
38588 1 63.0368 15.7461 -11.8124 0.000670072 1 
38589 1 63.8 14.2083 -9.49747 0.000707581 1 
38590 1 62.9138 16.8989 -9.16552 0.00134021 1 
38591 1 64.437 20.1966 -7.44382 0.00307177 1 
38596 1 62.5072 2.15784 -13.7523 0.000387551 1 
38597 1 61.6237 4.86525 -13.4095 0.000456766 1 
38598 1 64.1632 4.33061 -14.6021 0.00037353 1 
38599 1 63.2787 7.03432 -14.2588 0.00046078 1 
38600 1 64.0402 5.49063 -11.9739 0.00104079 1 
38601 1 63.1575 8.1963 -11.6242 0.00127422 1 
39226 1 88.1619 50.2152 -14.848 0.000374269 1 
50538 2 28.7029 11.8912 3.08645 0.0318167 1 
39324 1 91.4633 48.1362 -13.7782 0.000379769 1 
39325 1 90.5695 50.832 -13.4402 0.000379701 1 
39326 1 93.1141 50.294 -14.664 0.000167949 1 
39411 1 93.2574 42.7332 -14.4582 0.00033043 1 
39412 1 92.3596 45.4362 -14.1186 0.000349043 1 
39414 1 94.0077 47.5959 -14.9952 0.000169793 1 
39415 1 94.7705 46.0519 -12.7025 0.000414383 1 
39416 1 93.8729 48.751 -12.3698 0.000369583 1 
39417 1 96.4181 48.211 -13.5882 0.000213388 1 
39418 1 95.5257 50.9093 -13.2635 0.000224229 1 
39419 1 96.2827 49.3641 -10.9671 0.000471234 1 
39494 1 94.1539 40.0294 -14.7967 0.000339575 1 
39497 1 96.5687 40.6485 -13.3681 0.00059318 1 
39498 1 95.6702 43.3498 -13.0348 0.000533965 1 
39499 1 98.2099 42.8108 -14.2419 0.000357005 1 
39500 1 97.3134 45.511 -13.9143 0.000280691 1 
39501 1 98.0781 43.9635 -11.6137 0.000951603 1 
39502 1 97.1788 46.6654 -11.2902 0.000590087 1 
39503 1 99.7208 46.1265 -12.5083 0.000337408 1 
39504 1 98.8276 48.827 -12.1882 0.000334583 1 
39505 1 99.5834 47.2817 -9.88875 0.000746723 1 
39506 1 98.692 49.9805 -9.57412 0.000842166 1 
39507 1 101.237 49.4473 -10.7981 0.000729069 1 
39509 1 101.101 50.6046 -8.1954 0.00219051 1 
39575 1 33.8085 35.2459 -14.0404 0.000727963 1 
39576 1 97.4638 37.9474 -13.7029 0.000674812 1 
39577 1 35.4519 37.4121 -14.904 0.00042865 1 
39578 1 99.1052 40.1112 -14.5714 0.000413948 1 
39579 1 35.3276 38.567 -12.268 0.00107108 1 
39580 1 98.9775 41.2644 -11.9384 0.00109009 1 
39581 1 36.9661 40.7272 -13.1525 0.000473433 1 
39582 1 100.617 43.4257 -12.8295 0.000417191 1 
39583 1 36.8332 41.8766 -10.5212 0.0012589 1 
39584 1 100.48 44.5782 -10.2065 0.000921138 1 
39585 1 38.4752 44.0408 -11.4297 0.000662658 1 
39586 1 102.127 46.7446 -11.1143 0.000571637 1 
39587 1 102.881 45.1967 -8.82106 0.00151055 1 
39588 1 101.988 47.9038 -8.50636 0.00134952 1 
39589 1 104.538 47.366 -9.73143 0.00127832 1 
39590 1 103.65 50.0727 -9.41719 0.00180086 1 
39591 1 104.401 48.5298 -7.14266 0.0046473 1 
39593 1 106.07 50.6991 -8.0359 0.00285411 1 
39648 1 35.5824 29.8348 -14.7229 0.000292535 1 
39649 1 34.6962 32.5416 -14.3815 0.000492189 1 
39652 1 37.107 33.1723 -12.9471 0.0011774 1 
39653 1 36.2192 35.8713 -12.603 0.00129694 1 
39654 1 38.7505 35.3361 -13.8136 0.000658276 1 
39655 1 37.8599 38.0312 -13.4796 0.000566189 1 
39656 1 38.6237 36.4924 -11.1669 0.00168645 1 
39657 1 37.7311 39.182 -10.8397 0.00140689 1 
39658 1 40.2649 38.6456 -12.0626 0.000749682 1 
39659 1 39.3707 41.3404 -11.7444 0.00068971 1 
39660 1 40.1319 39.7909 -9.4278 0.0017471 1 
39661 1 39.2332 42.4879 -9.12582 0.00227447 1 
39662 1 41.7762 41.9524 -10.3507 0.00151581 1 
39663 1 40.8829 44.6576 -10.0434 0.00134877 1 
39664 1 41.6391 43.1003 -7.75249 0.00471291 1 
39665 1 40.7458 45.818 -7.45379 0.00373617 1 
39666 1 43.2977 45.2798 -8.66328 0.00200669 1 
39667 1 42.4114 47.9899 -8.34752 0.00132851 1 
39668 1 43.1702 46.4419 -6.07767 0.00797275 1 
39669 1 106.824 49.1546 -5.76492 0.00906924 1 
39670 1 44.8392 48.6139 -6.95521 0.0104294 1 
39672 1 44.6898 49.7435 -4.38186 0.15041 1 
39720 1 38.8805 27.7599 -13.6462 0.000392192 1 
39721 1 37.9937 30.468 -13.2973 0.000625948 1 
39722 1 40.528 29.936 -14.5037 0.00041275 1 
39723 1 39.6394 32.6382 -14.1562 0.000581164 1 
39724 1 40.4013 31.1008 -11.8674 0.0011634 1 
39725 1 39.5126 33.7996 -11.5121 0.00147521 1 
39726 1 42.0457 33.262 -12.7317 0.000994261 1 
39727 1 41.1558 35.9547 -12.391 0.000865477 1 
39728 1 41.9156 34.4187 -10.0779 0.00272206 1 
39729 1 41.0256 37.1033 -9.74058 0.00212575 1 
39730 1 43.5595 36.5674 -10.9776 0.00114616 1 
39731 1 42.669 39.2558 -10.6583 0.00133452 1 
39732 1 43.427 37.7085 -8.33037 0.00303454 1 
39733 1 42.5363 40.3969 -8.03684 0.00405543 1 
39734 1 45.0754 39.8655 -9.27228 0.00255618 1 
39735 1 44.1857 42.5679 -8.97211 0.00350209 1 
39736 1 44.9483 41.0095 -6.67232 0.00657048 1 
39737 1 44.0512 43.7233 -6.39342 0.0103643 1 
39738 1 46.6037 43.1872 -7.60611 0.0137816 1 
39739 1 45.7186 45.9129 -7.27461 0.012763 1 
39740 1 46.4769 44.3347 -5.06889 0.117758 1 
39741 1 45.592 47.0982 -4.67482 0.16707 1 
39742 1 48.1329 46.5524 -5.82375 0.048764 1 
39743 1 47.2704 49.2442 -5.51398 0.0780024 1 
39744 1 48.0209 47.7641 -3.18612 4.42813 5 
39745 1 47.0149 50.3867 -2.9698 9.58948 5 
39746 1 49.6946 49.8451 -3.91411 0.828898 5 
39782 1 40.6552 22.3408 -14.3281 0.000423425 1 
39783 1 39.7679 25.05 -13.9903 0.000369457 1 
39785 1 41.417 27.23 -14.8517 0.000245887 1 
39786 1 42.1812 25.6847 -12.5801 0.000505623 1 
39787 1 41.2907 28.3949 -12.2259 0.000707289 1 
39788 1 43.8269 27.8607 -13.4342 0.000663099 1 
39789 1 42.9358 30.5641 -13.0815 0.000849092 1 
39790 1 43.6977 29.0281 -10.796 0.00257285 1 
39791 1 42.8062 31.7275 -10.4336 0.00248854 1 
39792 1 45.3406 31.1873 -11.663 0.001123 1 
39793 1 44.4497 33.8797 -11.3137 0.00119516 1 
39794 1 45.2073 32.3451 -9.00635 0.00270269 1 
39795 1 44.3169 35.0277 -8.65626 0.00253719 1 
39796 1 46.8536 34.4914 -9.90861 0.00168919 1 
39797 1 45.9641 37.1752 -9.58171 0.00189597 1 
39798 1 46.723 35.6311 -7.25423 0.00590527 1 
39799 1 45.8345 38.3108 -6.95275 0.00640383 1 
39800 1 48.3743 37.7841 -8.211 0.00381074 1 
39801 1 47.4876 40.4813 -7.90678 0.0046807 1 
39802 1 48.252 38.927 -5.61153 0.0143815 1 
39803 1 47.3706 41.6284 -5.31664 0.0223709 1 
39804 1 49.9121 41.102 -6.56699 0.02524 1 
39805 1 49.0306 43.8212 -6.2335 0.0332076 1 
39806 1 49.818 42.2448 -4.03317 0.162648 1 
39807 1 48.9243 44.9574 -3.68162 0.13609 1 
39808 1 51.4566 44.4567 -4.78606 0.0220825 1 
39809 1 50.5546 47.1675 -4.36411 0.0902109 1 
39810 1 51.3183 45.5439 -2.15781 2.28008 5 
39811 1 50.3949 48.1326 -1.57307 4.09407 5 
39812 1 52.8888 47.7974 -2.80519 0.487599 1 
39813 1 51.9491 50.5107 -2.00028 6.27555 5 
39814 1 52.5855 48.4789 0.0938446 9.8947 5 
39839 1 42.4267 16.9287 -14.9917 0.000423944 1 
39840 1 41.5414 19.6338 -14.6613 0.00044554 1 
39843 1 43.9593 20.2633 -13.2691 0.000738752 1 
39844 1 43.0714 22.9735 -12.9277 0.000534145 1 
39845 1 45.6117 22.4446 -14.1326 0.000311107 1 
39846 1 44.7194 25.1533 -13.7858 0.000348608 1 
39847 1 45.4884 23.6093 -11.518 0.000682399 1 
39848 1 44.5929 26.3198 -11.1606 0.00118098 1 
39849 1 47.131 25.7818 -12.3733 0.00059609 1 
39850 1 46.234 28.4871 -12.0191 0.000801974 1 
39851 1 46.9996 26.9485 -9.74127 0.00145028 1 
39852 1 46.0994 29.651 -9.37469 0.00187315 1 
39853 1 48.6388 29.107 -10.6108 0.00104705 1 
39854 1 47.7439 31.804 -10.2545 0.00171167 1 
39855 1 48.499 30.266 -7.96496 0.00233411 1 
39856 1 47.6093 32.9552 -7.59546 0.0058191 1 
39857 1 50.1506 32.4142 -8.86418 0.00168469 1 
39858 1 49.2631 35.0988 -8.52669 0.00209844 1 
39859 1 50.0264 33.5587 -6.21887 0.00555466 1 
39860 1 49.1461 36.2341 -5.8999 0.00977324 1 
39861 1 51.6861 35.7067 -7.16371 0.00473726 1 
39862 1 50.8002 38.392 -6.86837 0.0156651 1 
39863 1 51.5946 36.8449 -4.55063 0.043037 1 
39864 1 50.7014 39.5286 -4.32822 0.113847 1 
39865 1 53.2347 39.022 -5.53828 0.0325795 1 
39866 1 52.3436 41.7436 -5.1743 0.0201531 1 
39867 1 53.1643 40.164 -2.98581 0.214347 1 
39868 1 52.2963 42.9177 -2.54624 0.41802 1 
39869 1 54.7422 42.4298 -3.78881 0.246725 1 
39870 1 53.8574 45.0819 -3.32758 0.173851 1 
39871 1 54.6547 43.4361 -0.908917 5.15187 5 
39872 1 53.5697 45.997 -0.672355 9.5333 5 
39873 1 56.1234 45.6708 -1.74523 1.48576 5 
39874 1 55.2915 48.3722 -1.35438 2.33267 5 
39875 1 57.7403 48.9488 0.0981699 8.2721 5 
39896 1 45.7312 14.8469 -13.9339 0.000775671 1 
39897 1 44.8452 17.5542 -13.6047 0.000867561 1 
39898 1 47.392 17.0261 -14.8097 0.000598546 1 
39899 1 46.5025 19.7353 -14.4743 0.000472445 1 
39900 1 47.2693 18.1846 -12.2148 0.00156978 1 
39901 1 46.3804 20.8982 -11.8698 0.00103169 1 
39902 1 48.9248 20.3646 -13.0665 0.00107088 1 
39903 1 48.0289 23.0743 -12.7223 0.000700694 1 
39904 1 48.8026 21.5343 -10.4593 0.00375755 1 
39905 1 47.9022 24.2433 -10.1013 0.00180245 1 
39906 1 50.4459 23.6947 -11.3058 0.00114471 1 
39907 1 49.5403 26.4033 -10.9638 0.000918507 1 
39908 1 50.3132 24.8623 -8.6871 0.00269836 1 
39909 1 49.4013 27.5669 -8.33107 0.00170418 1 
39910 1 51.9468 27.0155 -9.563 0.00158646 1 
39911 1 51.0428 29.7201 -9.21532 0.00154966 1 
39912 1 51.7994 28.1741 -6.9379 0.00397086 1 
39913 1 50.9036 30.8749 -6.57354 0.00528033 1 
39914 1 53.4492 30.3304 -7.84028 0.00281587 1 
39915 1 52.5663 33.0244 -7.49203 0.00304937 1 
39916 1 53.3219 31.4836 -5.21202 0.0193313 1 
39917 1 52.4657 34.1684 -4.85496 0.0176709 1 
39918 1 54.9976 33.6343 -6.14501 0.00704852 1 
39919 1 54.123 36.3204 -5.83268 0.0133064 1 
39920 1 54.9289 34.7722 -3.54903 0.0806215 1 
39921 1 54.0532 37.4782 -3.28096 0.0926685 1 
39922 1 56.5747 36.9346 -4.48575 0.0400574 1 
39923 1 55.6777 39.6448 -4.23686 0.18809 1 
39924 1 56.5493 38.1476 -1.97406 3.03069 5 
39925 1 55.6263 40.8327 -1.81526 6.52662 5 
39926 1 58.1391 40.3069 -2.83153 0.144048 1 
39927 1 57.1333 43.0909 -2.31756 0.726943 1 
39928 1 57.9432 41.4666 -0.291859 8.40871 5 
39929 1 59.5249 43.5991 -0.760076 3.2619 5 
39930 1 58.4945 46.1588 -0.520076 8.98469 5 
39943 1 47.5051 9.44088 -14.5807 0.000432723 1 
39944 1 46.6183 12.1423 -14.2581 0.000597195 1 
39947 1 49.0448 12.765 -12.8679 0.00118535 1 
39948 1 48.1572 15.4723 -12.5464 0.001575 1 
39949 1 50.7086 14.9446 -13.7326 0.00132441 1 
39950 1 49.8181 17.6535 -13.4039 0.00139277 1 
39951 1 50.5905 16.1015 -11.1455 0.00664238 1 
39952 1 49.6981 18.8183 -10.8109 0.00599278 1 
39953 1 52.2461 18.2782 -11.9706 0.00233739 1 
39954 1 51.3487 20.9863 -11.64 0.00194706 1 
39955 1 52.129 19.4406 -9.35076 0.0127054 1 
39956 1 51.2276 22.1494 -9.01977 0.00808325 1 
39957 1 53.7661 21.5966 -10.2098 0.00135117 1 
39958 1 52.8576 24.3049 -9.89178 0.00120521 1 
39959 1 53.6359 22.7524 -7.59302 0.00292169 1 
39960 1 52.7168 25.4711 -7.27778 0.00481935 1 
39961 1 55.2653 24.908 -8.49303 0.0020753 1 
39962 1 54.3513 27.6225 -8.17993 0.00245191 1 
39963 1 55.1183 26.0669 -5.90408 0.00906764 1 
39964 1 54.1966 28.7803 -5.57854 0.0098573 1 
39965 1 56.7596 28.2295 -6.81475 0.00439997 1 
39966 1 55.8653 30.9413 -6.48382 0.00549588 1 
39967 1 56.6024 29.3832 -4.24122 0.0291163 1 
39968 1 55.7629 32.1083 -3.87342 0.079079 1 
39969 1 58.2887 31.563 -5.13529 0.0237706 1 
39970 1 57.4444 34.2531 -4.79207 0.0157595 1 
39971 1 58.2637 32.7218 -2.51056 0.310349 1 
39972 1 57.4071 35.3914 -2.17065 0.505458 1 
39973 1 59.8967 34.8782 -3.50625 0.121921 1 
39974 1 59.0227 37.5919 -3.20057 0.181097 1 
39975 1 59.8621 36.0841 -1.06467 6.17162 5 
39976 1 59.0172 38.7242 -0.68271 6.66094 5 
39977 1 61.4777 38.312 -1.75276 0.528551 1 
39978 1 60.4989 40.9358 -1.26446 1.92754 5 
39979 1 62.7634 41.4764 0.16141 8.85853 5 
39987 1 48.3911 6.74184 -14.9045 0.000297092 1 
39990 1 50.8126 7.36261 -13.5093 0.000588019 1 
39991 1 49.93 10.0625 -13.1872 0.000826191 1 
39992 1 52.4784 9.53876 -14.383 0.000542201 1 
39993 1 51.5954 12.2401 -14.0572 0.000920714 1 
39994 1 52.362 10.6898 -11.7828 0.00179824 1 
39995 1 51.48 13.3917 -11.4652 0.00452018 1 
39996 1 54.0248 12.8701 -12.6311 0.00119648 1 
39997 1 53.1385 15.5728 -12.3007 0.00177092 1 
39998 1 53.9157 14.0289 -10.0153 0.00586212 1 
39999 1 53.0243 16.7316 -9.68267 0.0105642 1 
40000 1 55.5605 16.198 -10.8516 0.0018851 1 
40001 1 54.6662 18.8952 -10.5272 0.00171078 1 
40002 1 55.4403 17.3524 -8.21204 0.00364727 1 
40003 1 54.5436 20.0456 -7.89634 0.0033376 1 
40004 1 57.0799 19.5054 -9.08249 0.00230217 1 
40005 1 56.1783 22.1978 -8.7847 0.00337263 1 
40006 1 56.9554 20.6426 -6.44125 0.0156958 1 
40007 1 56.0393 23.3503 -6.18729 0.00739276 1 
40008 1 58.5886 22.8 -7.3766 0.00719494 1 
40009 1 57.6739 25.5176 -7.11046 0.00232329 1 
40010 1 58.4413 23.974 -4.81984 0.0230829 1 
40011 1 57.5214 26.6859 -4.53167 0.0122848 1 
40012 1 60.0965 26.1217 -5.73939 0.0172122 1 
40013 1 59.1739 28.8484 -5.47196 0.0154134 1 
40014 1 59.9513 27.3029 -3.24336 0.19748 1 
40015 1 59.0054 30.004 -2.92257 0.110006 1 
40016 1 61.6046 29.4675 -4.11136 0.0887352 1 
40017 1 60.7281 32.2087 -3.82064 0.0906167 1 
40018 1 61.4143 30.7083 -1.6783 3.40447 5 
40019 1 60.7585 33.3613 -1.20768 5.31953 5 
40020 1 63.2014 32.8535 -2.44654 0.212853 1 
40021 1 62.3431 35.5339 -2.15567 6.62382 5 
40022 1 63.8021 38.9625 -0.0836631 6.03467 5 
40027 1 52.5792 1.96409 -14.1623 0.000265472 1 
40028 1 51.6948 4.66358 -13.8348 0.000393468 1 
40030 1 53.3598 6.83826 -14.7119 0.000374993 1 
40031 1 54.1163 5.28908 -12.4366 0.00075002 1 