ITEM: TIMESTEP
0
ITEM: NUMBER OF ATOMS
7199
ITEM: BOX BOUNDS xy xz yz pp pp ss
-3.8548594475400000e+02 3.5423032761000002e+01 -3.8548594475400000e+02
0.0000000000000000e+00 1.1386488219400000e+02 0.0000000000000000e+00
-1.0778045616546332e+02 1.1507537060613058e+02 0.0000000000000000e+00
ITEM: ATOMS id type x y z c_csym c_cna 
18376 1 -174.404 55.168 -14.8126 4.93564e-05 1 
18377 1 -176.135 55.9913 -12.6993 9.87238e-05 1 
19497 1 -140.382 48.4282 -13.3347 0.000306172 1 
19498 1 -141.418 51.1039 -13.3041 0.000253114 1 
19499 1 -140.372 51.4684 -10.6807 0.000759337 1 
19500 1 -176.829 54.1447 -10.6339 0.000366338 1 
19501 1 -175.779 54.5153 -8.00056 0.00226596 1 
19573 1 -136.907 49.8189 -14.8931 0.000153931 1 
19574 1 -138.64 50.642 -12.7852 0.000348478 1 
19575 1 -173.367 52.4939 -14.8559 9.88557e-05 1 
19576 1 -175.098 53.3183 -12.7452 0.000173836 1 
19577 1 -172.32 52.8567 -12.2245 0.000216506 1 
19578 1 -174.05 53.6849 -10.1143 0.000524999 1 
19579 1 -173.356 55.5304 -12.1776 0.000125256 1 
19580 1 -175.084 56.3551 -10.0614 0.000694246 1 
19581 1 -172.308 55.8953 -9.53683 0.000585113 1 
19582 1 -174.033 56.7222 -7.41026 0.00612075 1 
19664 1 -170.589 52.0314 -14.3359 0.000119956 1 
19666 1 -171.626 54.7059 -14.2922 5.45008e-05 1 
19667 1 -168.849 54.2437 -13.7725 7.02207e-05 1 
19668 1 -170.58 55.0686 -11.6559 0.000104304 1 
19669 1 -169.887 56.9161 -13.7242 3.98439e-05 1 
19763 1 -167.11 56.454 -13.2051 4.72957e-05 1 
20551 1 -106.364 38.6834 -14.4791 4.9012e-05 1 
20552 1 -106.359 41.7053 -11.8037 0.000181781 1 
20553 1 -141.773 44.73 -9.13777 0.00250155 1 
20554 1 -141.787 47.758 -6.53837 0.0199351 1 
20555 1 -141.77 50.8334 -3.94888 0.0509445 1 
20556 1 -177.078 53.8451 -1.15415 4.10622 5 
20612 1 -104.623 40.8861 -13.9282 5.74795e-05 1 
20614 1 -141.084 43.5507 -13.8999 0.000101572 1 
20615 1 -138.305 43.09 -13.3792 0.000106944 1 
20616 1 -140.041 43.9091 -11.2594 0.000383796 1 
20617 1 -139.344 45.7565 -13.3569 0.000193336 1 
20618 1 -141.08 46.5756 -11.247 0.000821821 1 
20619 1 -138.301 46.1144 -10.7239 0.0007399 1 
20620 1 -140.039 46.9343 -8.62344 0.0058093 1 
20621 1 -139.338 48.7884 -10.711 0.00103925 1 
20622 1 -141.075 49.6154 -8.61711 0.00340437 1 
20623 1 -138.294 49.1524 -8.09817 0.00435472 1 
20624 1 -140.035 49.9898 -6.029 0.0151158 1 
20625 1 -174.75 51.8415 -8.06128 0.00298752 1 
20626 1 -176.5 52.6832 -5.95844 0.0245599 1 
20627 1 -173.69 52.2134 -5.45053 0.0214702 1 
20628 1 -175.451 53.0438 -3.41403 0.267521 1 
20629 1 -174.722 54.8933 -5.3607 0.0300018 1 
20630 1 -176.436 55.6906 -3.20049 0.240411 1 
20631 1 -173.675 55.257 -2.64935 0.651873 1 
20632 1 -175.369 56.1849 -0.303816 13.0641 5 
20693 1 -134.83 44.4767 -14.9487 6.84114e-05 1 
20694 1 -136.565 45.295 -12.8342 0.000179359 1 
20695 1 -135.869 47.1459 -14.9229 0.000121628 1 
20696 1 -137.603 47.966 -12.8134 0.000310798 1 
20697 1 -134.826 47.5036 -12.2902 0.000311224 1 
20698 1 -136.56 48.3262 -10.186 0.000915924 1 
20699 1 -135.863 50.1794 -12.264 0.00038716 1 
20700 1 -137.594 51.0068 -10.1611 0.00110929 1 
20701 1 -170.242 50.5432 -9.6377 0.00129011 1 
20702 1 -171.97 51.3757 -7.54264 0.00566526 1 
20703 1 -171.273 53.2239 -9.59002 0.00103213 1 
20704 1 -172.999 54.0557 -7.47838 0.00294153 1 
20705 1 -170.224 53.6002 -6.94195 0.00996379 1 
20706 1 -171.962 54.4317 -4.8178 0.0324361 1 
20707 1 -171.267 56.2604 -6.88311 0.00478964 1 
20709 1 -170.271 56.6196 -4.19839 0.0941187 1 
20778 1 -133.091 46.6835 -14.4003 0.000139345 1 
20780 1 -134.129 49.3562 -14.3722 0.000173995 1 
20781 1 -131.353 48.8934 -13.8518 0.000244429 1 
20782 1 -133.087 49.7164 -11.7433 0.000537316 1 
20783 1 -167.813 51.5688 -13.8169 0.000178285 1 
20784 1 -169.545 52.3944 -11.7047 0.000288231 1 
20785 1 -166.77 51.9328 -11.189 0.000525153 1 
20786 1 -168.503 52.7626 -9.07397 0.00112232 1 
20787 1 -167.804 54.6075 -11.137 0.000200504 1 
20788 1 -169.536 55.4332 -9.01513 0.000671792 1 
20789 1 -166.759 54.9764 -8.49779 0.00132352 1 
20790 1 -168.505 55.804 -6.36942 0.0104774 1 
20869 1 -165.035 51.1063 -13.2994 0.000275422 1 
20871 1 -166.073 53.7817 -13.2554 0.000127092 1 
20872 1 -163.294 53.3197 -12.7399 0.000188981 1 
20873 1 -165.027 54.1473 -10.6238 0.000430666 1 
20874 1 -164.332 55.9924 -12.6892 8.43782e-05 1 
20875 1 -166.063 56.8156 -10.5661 0.00023632 1 
20876 1 -163.283 56.3554 -10.0528 0.000419224 1 
20960 1 -161.562 52.4943 -14.8532 0.000105355 1 
20962 1 -162.6 55.1684 -14.8078 5.03568e-05 1 
20963 1 -159.822 54.7055 -14.2919 5.81804e-05 1 
20964 1 -161.553 55.5304 -12.1746 0.000100041 1 
21059 1 -158.082 56.9154 -13.7278 4.51895e-05 1 
21543 1 -104.285 33.3591 -14.5525 9.58808e-05 1 
21544 1 -106.026 34.1737 -12.4206 0.000188843 1 
21545 1 -105.325 36.0203 -14.5151 6.62579e-05 1 
21546 1 -104.285 36.3735 -11.872 0.000193291 1 
21547 1 -106.023 37.1916 -9.74751 0.000677984 1 
21548 1 -105.322 39.04 -11.8366 0.000102768 1 
21549 1 -104.275 39.4003 -9.19742 0.00083667 1 
21550 1 -105.999 40.2287 -7.07751 0.00251453 1 
21551 1 -140.735 42.0682 -9.16091 0.00078918 1 
21552 1 -139.682 42.4381 -6.51109 0.00314674 1 
21553 1 -141.401 43.2726 -4.37782 0.0219946 1 
21554 1 -140.726 45.0991 -6.47677 0.0286628 1 
21555 1 -139.685 45.4708 -3.78254 0.454459 1 
21556 1 -141.487 46.3584 -1.81305 5.43329 5 
21557 1 -140.77 48.1306 -3.98595 0.131232 1 
21558 1 -139.792 48.5212 -1.46974 6.89466 5 
21559 1 -140.745 51.1784 -1.3275 9.7468 5 
21607 1 -102.546 35.5579 -13.9971 6.93337e-05 1 
21609 1 -103.585 38.2217 -13.9621 4.34768e-05 1 
21610 1 -100.805 37.7602 -13.4426 5.27158e-05 1 
21611 1 -102.543 38.5782 -11.3218 0.000211801 1 
21612 1 -101.844 40.4253 -13.4089 5.78873e-05 1 
21613 1 -139.002 41.2449 -11.2859 0.000199555 1 
21614 1 -136.223 40.785 -10.7661 0.000321946 1 
21615 1 -137.956 41.6085 -8.64113 0.00108334 1 
21616 1 -137.262 43.4491 -10.7364 0.000534745 1 
21617 1 -138.998 44.2714 -8.61437 0.00273266 1 
21618 1 -136.221 43.8107 -8.08663 0.00500462 1 
21619 1 -137.958 44.6384 -5.96071 0.0224569 1 
21620 1 -137.257 46.4744 -8.09399 0.0037224 1 
21621 1 -139.001 47.2946 -6.01805 0.0390742 1 
21622 1 -136.215 46.8415 -5.46407 0.0332115 1 
21623 1 -137.993 47.6577 -3.4238 0.602893 1 
21624 1 -137.258 49.5128 -5.49941 0.0266739 1 
21625 1 -139.018 50.3689 -3.45357 0.0649861 1 
21626 1 -136.237 49.9196 -2.96455 0.365128 1 
21627 1 -172.587 52.5369 -2.83238 6.20156 5 
21628 1 -174.374 53.2195 -0.932595 10.608 5 
21682 1 -134.487 39.9648 -12.8862 7.9234e-05 1 
21683 1 -133.79 41.8111 -14.9757 4.99177e-05 1 
21684 1 -135.526 42.6294 -12.8563 0.000141409 1 
21685 1 -132.748 42.1693 -12.3303 0.000195396 1 
21686 1 -134.484 42.9897 -10.21 0.000914698 1 
21687 1 -133.788 44.8337 -12.3091 0.000199357 1 
21688 1 -135.524 45.6528 -10.1973 0.000713343 1 
21689 1 -132.748 45.1922 -9.66879 0.00100196 1 
21690 1 -134.489 46.0068 -7.55876 0.00816806 1 
21691 1 -133.787 47.8621 -9.66065 0.00143715 1 
21692 1 -135.516 48.6905 -7.55889 0.0041709 1 
21693 1 -132.755 48.2298 -7.04483 0.00672588 1 
21694 1 -134.465 49.067 -4.91664 0.0646785 1 
21695 1 -169.199 50.9139 -7.01307 0.00630806 1 
21696 1 -170.906 51.7565 -4.93518 0.0537399 1 
21697 1 -168.155 51.2985 -4.3803 0.0512028 1 
21698 1 -169.789 52.1883 -2.26606 3.1581 5 
21699 1 -169.172 53.9779 -4.28193 0.460848 5 
21700 1 -170.873 54.7415 -2.11449 5.87662 5 
21701 1 -168.144 54.2621 -0.982872 12.6847 5 
21758 1 -131.012 41.3501 -14.4503 7.15575e-05 1 
21760 1 -132.052 44.0151 -14.4239 8.73295e-05 1 
21761 1 -129.274 43.5537 -13.898 0.000123727 1 
21762 1 -131.01 44.373 -11.7807 0.000380007 1 
21763 1 -130.314 46.221 -13.8768 0.000204644 1 
21764 1 -132.05 47.0411 -11.7671 0.00048294 1 
21765 1 -129.273 46.5788 -11.2432 0.000905953 1 
21766 1 -131.013 47.401 -9.14141 0.00250944 1 
21767 1 -165.734 49.2541 -11.2258 0.00084417 1 
21768 1 -167.471 50.0821 -9.12235 0.00184106 1 
21769 1 -164.694 49.6188 -8.61225 0.00379939 1 
21770 1 -166.436 50.4576 -6.51662 0.00854578 1 
21771 1 -165.726 52.3032 -8.56791 0.00212395 1 
21772 1 -167.458 53.1379 -6.44671 0.00917274 1 
21773 1 -164.698 52.6875 -5.95085 0.0248465 1 
21774 1 -166.443 53.5367 -3.76517 0.526635 5 
21775 1 -165.704 55.346 -5.85256 0.0168862 1 
21776 1 -167.48 56.123 -3.71697 0.505576 5 
21777 1 -164.63 55.6971 -3.18964 0.239419 1 
21778 1 -166.423 56.5287 -1.20399 5.50546 5 
21843 1 -127.536 45.7586 -13.3525 0.000238491 1 
21845 1 -128.575 48.4304 -13.3312 0.000327387 1 
21846 1 -161.22 47.9672 -12.8094 0.000358561 1 
21847 1 -162.956 48.7906 -10.7064 0.0011609 1 
21848 1 -162.257 50.6432 -12.7816 0.000367252 1 
21849 1 -163.991 51.4709 -10.6753 0.000827694 1 
21850 1 -161.212 51.0081 -10.1586 0.00111459 1 
21851 1 -162.947 51.8441 -8.05692 0.00316639 1 
21852 1 -162.246 53.6857 -10.1108 0.000538816 1 
21853 1 -163.978 54.5171 -7.99254 0.00222652 1 
21854 1 -161.193 54.0549 -7.47979 0.00242375 1 
21855 1 -162.917 54.8933 -5.35964 0.0257707 1 
21856 1 -162.231 56.7196 -7.41079 0.00356504 1 
21927 1 -159.485 47.1459 -14.9191 0.000155785 1 
21929 1 -160.523 49.8192 -14.8906 0.000170577 1 
21930 1 -157.746 49.3555 -14.371 0.000205342 1 
21931 1 -159.479 50.1797 -12.2625 0.000404274 1 
21932 1 -158.783 52.0309 -14.3358 0.00013068 1 
21933 1 -160.515 52.8568 -12.2234 0.000205998 1 
21934 1 -157.738 52.3936 -11.7074 0.000261463 1 
21935 1 -159.466 53.2233 -9.59248 0.000893933 1 
21936 1 -158.774 55.0675 -11.6598 7.91816e-05 1 
21937 1 -160.503 55.8938 -9.53941 0.000366754 1 
21938 1 -157.725 55.4304 -9.02611 0.00051992 1 
21939 1 -159.452 56.2548 -6.89605 0.00249064 1 
22020 1 -156.005 51.5674 -13.819 0.000193263 1 
22022 1 -157.043 54.2425 -13.7762 7.40613e-05 1 
22023 1 -154.264 53.7796 -13.2614 0.00013315 1 
22024 1 -155.994 54.6054 -11.1452 0.000150593 1 
22025 1 -190.725 56.4527 -13.2131 5.04531e-05 1 
22027 1 -189.674 56.8138 -10.5792 0.000167746 1 
22117 1 -186.215 55.1664 -14.8149 5.76557e-05 1 
22118 1 -187.946 55.9903 -12.6989 8.2573e-05 1 
22401 1 -70.2534 26.6647 -13.0816 0.000308523 1 
22402 1 -70.2613 29.6739 -10.3584 0.0012147 1 
22403 1 -105.689 32.6733 -7.67086 0.00137076 1 
22404 1 -105.673 35.6759 -5.0263 0.0202812 1 
22405 1 -105.52 38.7236 -2.42635 0.380336 1 
22444 1 -66.7767 28.044 -14.6442 0.000246812 1 
22445 1 -68.518 28.8595 -12.5024 0.000645074 1 
22446 1 -103.243 30.7006 -14.594 0.00016545 1 
22447 1 -104.984 31.5146 -12.4575 0.000264411 1 
22448 1 -102.205 31.0518 -11.9379 0.000367578 1 
22449 1 -103.947 31.8629 -9.80274 0.000561213 1 
22450 1 -103.246 33.7099 -11.9037 0.000201103 1 
22451 1 -104.987 34.5233 -9.77632 0.000411659 1 
22452 1 -102.207 34.057 -9.25866 0.000733073 1 
22453 1 -103.944 34.8702 -7.13993 0.00122469 1 
22454 1 -103.243 36.7264 -9.23696 0.00100621 1 
22455 1 -104.973 37.5457 -7.12322 0.00599355 1 
22456 1 -102.196 37.0778 -6.61312 0.00629182 1 
22457 1 -103.896 37.906 -4.526 0.0542695 1 
22458 1 -103.216 39.7692 -6.55633 0.00947733 1 
22459 1 -104.926 40.6058 -4.44385 0.0372803 1 
22460 1 -102.144 40.1016 -3.89707 0.374606 1 
22461 1 -103.743 40.8983 -1.82845 5.79151 5 
22462 1 -138.629 42.8145 -3.83975 0.0580823 1 
22463 1 -140.373 43.6553 -1.66403 1.19424 5 
22464 1 -137.598 43.2093 -1.20295 6.2182 5 
22465 1 -138.877 45.9594 -0.663956 12.1216 5 
22505 1 -100.463 30.2394 -14.0735 0.00020758 1 
22507 1 -101.505 32.8969 -14.0328 0.000106469 1 
22508 1 -98.7256 32.4357 -13.5106 0.000138723 1 
22509 1 -100.466 33.247 -11.3826 0.00026676 1 
22510 1 -99.7661 35.0962 -13.4761 8.75634e-05 1 
22511 1 -101.505 35.9103 -11.3544 0.000273382 1 
22512 1 -98.7267 35.4487 -10.8313 0.000356682 1 
22513 1 -100.466 36.2616 -8.71821 0.00153997 1 
22514 1 -99.7631 38.1169 -10.8012 0.000280134 1 
22515 1 -101.499 38.9378 -8.6871 0.0017829 1 
22516 1 -98.7192 38.478 -8.16432 0.00210924 1 
22517 1 -100.452 39.2998 -6.06407 0.0171453 1 
22518 1 -135.179 41.1508 -8.12064 0.0022599 1 
22519 1 -136.911 41.9748 -5.9844 0.0167468 1 
22520 1 -134.133 41.526 -5.46607 0.0243102 1 
22521 1 -135.882 42.2789 -3.26169 0.441768 1 
22522 1 -135.214 44.1623 -5.40651 0.0751696 1 
22523 1 -136.968 45.0418 -3.25796 0.379835 1 
22524 1 -134.177 44.5471 -2.84249 0.131993 1 
22525 1 -135.971 45.4476 -0.646121 4.25543 5 
22526 1 -135.197 47.2239 -2.8112 0.346345 1 
22527 1 -137.021 48.1309 -0.940677 5.97212 5 
22528 1 -170.806 50.4686 -0.487006 9.76258 5 
22576 1 -96.9874 34.6354 -12.9519 0.000106177 1 
22578 1 -98.0261 37.2993 -12.9192 6.56989e-05 1 
22579 1 -95.249 36.8392 -12.3932 9.18431e-05 1 
22580 1 -96.9859 37.6567 -10.2745 0.000511455 1 
22581 1 -131.71 39.5048 -12.3598 0.000126069 1 
22582 1 -133.445 40.3261 -10.2406 0.000429714 1 
22583 1 -130.668 39.8688 -9.70989 0.000656044 1 
22584 1 -132.401 40.6958 -7.59018 0.00190096 1 
22585 1 -131.707 42.5324 -9.67988 0.000873291 1 
22586 1 -133.448 43.3565 -7.55219 0.00725465 1 
22587 1 -130.664 42.9035 -7.02504 0.00350322 1 
22588 1 -132.4 43.7254 -4.894 0.0336269 1 
22589 1 -131.71 45.5534 -7.03077 0.00571758 1 
22590 1 -133.464 46.3816 -4.95039 0.0290937 1 
22591 1 -130.695 45.9156 -4.38678 0.0582107 1 
22592 1 -132.485 46.8153 -2.37164 0.461526 1 
22593 1 -131.732 48.6172 -4.45323 0.0579891 1 
22594 1 -133.433 49.4759 -2.20704 3.89872 5 
22595 1 -130.702 49.0292 -1.88468 5.98724 5 
22596 1 -167.038 51.6798 -1.78773 9.6068 5 
22644 1 -93.5107 36.0228 -14.5154 3.59052e-05 1 
22646 1 -129.973 38.6861 -14.4816 3.46797e-05 1 
22647 1 -127.196 38.2258 -13.9554 3.69476e-05 1 
22648 1 -128.933 39.0455 -11.8327 0.000139713 1 
22649 1 -128.235 40.8895 -13.924 9.16773e-05 1 
22650 1 -129.971 41.7097 -11.802 0.000254806 1 
22651 1 -127.195 41.2504 -11.2742 0.000372197 1 
22652 1 -128.93 42.0746 -9.14868 0.000996884 1 
22653 1 -128.234 43.9127 -11.2527 0.000494352 1 
22654 1 -129.968 44.7345 -9.13259 0.00291943 1 
22655 1 -127.197 44.2758 -8.60197 0.00286128 1 
22656 1 -128.928 45.1008 -6.46214 0.03207 1 
22657 1 -128.235 46.9371 -8.61658 0.00676836 1 
22658 1 -129.985 47.7613 -6.53422 0.0216629 1 
22659 1 -127.199 47.2992 -6.0111 0.0411599 1 
22660 1 -128.969 48.1373 -3.98327 0.138168 1 
22661 1 -163.655 49.9945 -6.02502 0.0161086 1 
22662 1 -165.39 50.8373 -3.94494 0.0509073 1 
22663 1 -162.634 50.3766 -3.45014 0.0670271 1 
22664 1 -164.363 51.1929 -1.32915 9.82678 5 
22665 1 -163.644 53.0499 -3.40731 0.24782 1 
22666 1 -165.271 53.8394 -1.14479 4.04705 5 
22667 1 -162.553 53.2427 -0.925155 10.6355 5 
22668 1 -163.589 56.191 -0.293468 13.0077 5 
22723 1 -125.458 40.4289 -13.3975 0.00010139 1 
22725 1 -126.497 43.0924 -13.3719 0.000161411 1 
22726 1 -123.719 42.6312 -12.8453 0.000196151 1 
22727 1 -125.457 43.4527 -10.7253 0.000626915 1 
22728 1 -124.759 45.2962 -12.8278 0.000259896 1 
22729 1 -126.495 46.1168 -10.7173 0.000963113 1 
22730 1 -123.717 45.6554 -10.1918 0.000814111 1 
22731 1 -125.453 46.4793 -8.08812 0.00411007 1 
22732 1 -160.176 48.3283 -10.1827 0.000968517 1 
22733 1 -161.912 49.1554 -8.09409 0.00452994 1 
22734 1 -159.13 48.6968 -7.55827 0.00418099 1 
22735 1 -160.876 49.5194 -5.49746 0.0273161 1 
22736 1 -160.163 51.3778 -7.54263 0.00541218 1 
22737 1 -161.884 52.2163 -5.44794 0.0201305 1 
22738 1 -159.094 51.7598 -4.93781 0.0534285 1 
22739 1 -160.775 52.5396 -2.82995 6.14545 5 
22740 1 -160.147 54.4271 -4.82662 0.0299778 1 
22741 1 -161.863 55.2544 -2.66407 0.523694 1 
22742 1 -159.043 54.7375 -2.13393 5.74044 5 
22799 1 -121.983 41.8115 -14.9652 8.54626e-05 1 
22801 1 -123.022 44.4767 -14.9421 0.000110836 1 
22802 1 -120.244 44.0139 -14.4162 0.00013518 1 
22803 1 -121.98 44.8339 -12.3022 0.000280176 1 
22804 1 -156.707 46.6824 -14.3965 0.000188932 1 
22805 1 -158.442 47.504 -12.2872 0.000375229 1 
22806 1 -155.665 47.0402 -11.7646 0.000570459 1 
22807 1 -157.401 47.865 -9.66082 0.00124935 1 
22808 1 -156.702 49.716 -11.7441 0.000538782 1 
22809 1 -158.434 50.5445 -9.63861 0.00116383 1 
22810 1 -155.659 50.0823 -9.12515 0.00180324 1 
22811 1 -157.386 50.9165 -7.01609 0.00577442 1 
22812 1 -156.691 52.7612 -9.08013 0.000966852 1 
22813 1 -158.411 53.5982 -6.94951 0.00954469 1 
22814 1 -155.64 53.1355 -6.45533 0.00986647 1 
22815 1 -157.348 53.9753 -4.29448 0.490688 5 
22816 1 -156.677 55.7971 -6.39282 0.0085544 1 
22817 1 -158.426 56.604 -4.23585 0.0422327 1 
22818 1 -155.646 56.1218 -3.73246 0.525565 5 
22885 1 -153.929 46.2186 -13.8728 0.000267229 1 
22887 1 -154.968 48.8915 -13.8514 0.000283726 1 
22888 1 -152.189 48.4271 -13.3307 0.000374354 1 
22889 1 -153.924 49.2518 -11.2269 0.000894209 1 
22890 1 -153.227 51.1036 -13.3024 0.000292253 1 
22891 1 -154.96 51.9309 -11.1936 0.000500163 1 
22892 1 -152.18 51.4675 -10.6798 0.000832199 1 
22893 1 -153.912 52.3009 -8.57434 0.00208619 1 
22894 1 -153.215 54.1443 -10.6328 0.000377936 1 
22895 1 -154.942 54.9727 -8.51144 0.000911515 1 
22896 1 -152.162 54.514 -8.00207 0.00222096 1 
22897 1 -153.882 55.3437 -5.86508 0.0170438 1 
22973 1 -148.715 49.816 -14.892 0.000184562 1 
22974 1 -150.448 50.6394 -12.7843 0.000384074 1 
22975 1 -149.753 52.4916 -14.8574 0.000110023 1 
22976 1 -151.485 53.3166 -12.7462 0.000191832 1 
22977 1 -148.706 52.8533 -12.2289 0.000199551 1 
22978 1 -150.435 53.682 -10.1184 0.0005395 1 
22979 1 -185.167 55.5277 -12.184 0.000101047 1 
22980 1 -186.895 56.353 -10.065 0.000380165 1 
22981 1 -184.117 55.8908 -9.55026 0.000427713 1 
22982 1 -185.841 56.7179 -7.42347 0.00329602 1 
23064 1 -146.975 52.0283 -14.3394 0.000125504 1 
23066 1 -183.436 54.7033 -14.2985 5.42931e-05 1 
23067 1 -180.657 54.2408 -13.7813 5.63884e-05 1 
23068 1 -182.388 55.0649 -11.6679 8.27858e-05 1 
23069 1 -181.696 56.9141 -13.737 4.01327e-05 1 
23144 1 -178.915 56.4521 -13.2195 3.9934e-05 1 
23186 1 -34.4714 19.138 -13.8112 7.14214e-05 1 
23188 1 -70.9418 21.8033 -13.7383 6.33072e-05 1 
23189 1 -68.163 21.341 -13.2236 6.3398e-05 1 
23190 1 -69.9064 22.1583 -11.0865 8.33853e-05 1 
23191 1 -69.2091 24.0045 -13.151 0.000108712 1 
23192 1 -70.9527 24.8222 -11.0104 0.000202998 1 
23193 1 -68.1733 24.3599 -10.4963 0.000196387 1 
23194 1 -69.92 25.1759 -8.35694 0.000924157 1 
23195 1 -69.2182 27.0206 -10.4192 0.00107153 1 
23196 1 -70.9653 27.8396 -8.26535 0.00571569 1 
23197 1 -68.178 27.3742 -7.75638 0.00311489 1 
23198 1 -69.9197 28.1897 -5.60078 0.0140441 1 
23199 1 -69.2234 30.0229 -7.6916 0.00412896 1 
23200 1 -70.98 30.8329 -5.54717 0.0185768 1 
23201 1 -68.1913 30.3702 -5.01296 0.0312248 1 
23202 1 -105.39 31.1794 -2.89812 0.425904 1 
23203 1 -104.643 33.0177 -5.03072 0.00795872 1 
23204 1 -106.408 33.8001 -2.91387 0.475445 1 
23205 1 -103.615 33.3668 -2.38571 0.127573 1 
23206 1 -104.576 36.0483 -2.46797 6.88583 5 
23237 1 -64.6884 22.7246 -14.773 6.71141e-05 1 
23238 1 -66.4302 23.5426 -12.6358 0.00010097 1 
23239 1 -65.7331 25.3859 -14.7053 0.00015594 1 
23240 1 -67.4748 26.2032 -12.5643 0.000348229 1 
23241 1 -64.6955 25.7417 -12.0476 0.000317053 1 
23242 1 -66.4369 26.5579 -9.903 0.000808124 1 
23243 1 -65.7388 28.398 -11.9839 0.000625953 1 
23244 1 -67.4792 29.2115 -9.83617 0.00274157 1 
23245 1 -64.7011 28.7503 -9.31762 0.00200802 1 
23246 1 -66.4358 29.5622 -7.15338 0.018471 1 
23247 1 -101.167 31.3985 -9.28034 0.001469 1 
23248 1 -102.907 32.204 -7.14744 0.00285536 1 
23249 1 -100.129 31.7407 -6.62269 0.0110612 1 
23250 1 -101.873 32.5269 -4.48738 0.0272467 1 
23251 1 -101.173 34.3965 -6.61838 0.00544155 1 
23252 1 -102.886 35.2082 -4.50791 0.031467 1 
23253 1 -100.169 34.7511 -3.98896 0.0327604 1 
23254 1 -101.884 35.604 -1.78158 4.12529 5 
23255 1 -101.158 37.4314 -3.9927 0.0503601 1 
23256 1 -102.83 38.2112 -1.82008 7.25722 5 
23257 1 -100.084 37.8074 -1.42317 5.46019 5 
23258 1 -101.169 40.3449 -0.685849 11.9359 5 
23292 1 -62.954 24.925 -14.1878 0.000131134 1 
23294 1 -63.9974 27.5833 -14.1249 0.000265217 1 
23295 1 -61.2181 27.1235 -13.6047 0.000293627 1 
23296 1 -62.9594 27.9377 -11.4635 0.000666745 1 
23297 1 -97.6836 29.7791 -13.5515 0.00024796 1 
23298 1 -99.4243 30.5908 -11.4148 0.000523986 1 
23299 1 -96.6458 30.1316 -10.8906 0.000651787 1 
23300 1 -98.3853 30.9403 -8.75055 0.00267386 1 
23301 1 -97.6879 32.7864 -10.8578 0.000458541 1 
23302 1 -99.43 33.5943 -8.73432 0.00131815 1 
23303 1 -96.6568 33.1329 -8.20441 0.00382938 1 
23304 1 -98.4119 33.9251 -6.0837 0.0241442 1 
23305 1 -97.6917 35.7981 -8.19081 0.00369299 1 
23306 1 -99.4308 36.6146 -6.09729 0.0093538 1 
23307 1 -96.6635 36.1676 -5.57314 0.0138214 1 
23308 1 -98.4121 36.9629 -3.50192 0.0647847 1 
23309 1 -97.6877 38.8547 -5.52431 0.0115555 1 
23310 1 -99.4476 39.6751 -3.42571 0.530306 1 
23311 1 -132.05 39.2326 -2.94396 6.71608 5 
23312 1 -133.073 41.8991 -2.81005 0.206785 1 
23313 1 -133.123 45.0269 -0.367362 6.9768 5 
23353 1 -94.9045 29.3202 -13.0272 0.000360395 1 
23355 1 -95.9466 31.9758 -12.9857 0.000165728 1 
23356 1 -93.1685 31.5171 -12.458 0.000218683 1 
23357 1 -94.9104 32.3276 -10.329 0.000483528 1 
23358 1 -94.2097 34.1757 -12.4248 0.000129246 1 
23359 1 -95.9504 34.9884 -10.3039 0.000529856 1 
23360 1 -93.1745 34.5309 -9.77433 0.000431452 1 
23361 1 -94.9195 35.3441 -7.66425 0.00310693 1 
23362 1 -94.2124 37.1992 -9.74744 0.000525077 1 
23363 1 -95.9482 38.0253 -7.63216 0.00184993 1 
23364 1 -93.1806 37.5667 -7.10804 0.00565893 1 
23365 1 -94.9005 38.4013 -4.99142 0.0387453 1 
23366 1 -129.624 40.2425 -7.0519 0.00634695 1 
23367 1 -131.345 41.0811 -4.93894 0.0378669 1 
23368 1 -128.59 40.6249 -4.34929 0.0415319 1 
23369 1 -130.329 41.4301 -2.17204 5.2112 5 
23370 1 -129.626 43.266 -4.34401 0.015107 1 
23371 1 -131.321 44.072 -2.19357 1.02406 5 
23372 1 -128.613 43.6855 -1.63008 4.11599 5 
23373 1 -129.69 46.3787 -1.81871 5.44168 5 
23415 1 -91.4288 30.7038 -14.5904 0.000166234 1 
23417 1 -92.4702 33.3618 -14.5505 7.59685e-05 1 
23418 1 -89.6931 32.9024 -14.0229 0.000113745 1 
23419 1 -91.4329 33.7168 -11.8955 0.000167547 1 
23420 1 -90.7335 35.5628 -13.9882 5.19439e-05 1 
23421 1 -92.4728 36.3797 -11.8658 0.000116317 1 
23422 1 -89.6971 35.9198 -11.3366 0.000196172 1 
23423 1 -91.4392 36.7404 -9.21958 0.000758563 1 
23424 1 -126.158 38.5859 -11.3064 0.000169449 1 
23425 1 -127.895 39.4116 -9.18205 0.00106902 1 
23426 1 -125.124 38.9528 -8.66047 0.00170675 1 
23427 1 -126.861 39.7936 -6.52364 0.00922145 1 
23428 1 -126.157 41.6185 -8.61899 0.00187092 1 
23429 1 -127.893 42.4462 -6.48023 0.0035528 1 
23430 1 -125.118 41.9986 -5.95482 0.0106163 1 
23431 1 -126.861 42.8344 -3.80043 0.0191068 1 
23432 1 -126.162 44.6472 -5.95016 0.0151948 1 
23433 1 -127.892 45.4739 -3.76718 0.464923 1 
23434 1 -125.163 45.0629 -3.27198 0.354295 1 
23435 1 -127.074 45.9864 -0.650332 12.0572 5 
23436 1 -126.191 47.6683 -3.41761 0.611237 1 
23437 1 -163.415 48.5411 -1.4701 6.81681 5 
23438 1 -160.639 48.1584 -0.933495 6.0281 5 
23486 1 -87.9569 35.1027 -13.4598 8.3955e-05 1 
23488 1 -124.419 37.7652 -13.4279 5.22673e-05 1 
23489 1 -121.642 37.3046 -12.8993 7.62328e-05 1 
23490 1 -123.381 38.1255 -10.7782 0.00025867 1 
23491 1 -122.68 39.9679 -12.87 0.000118615 1 
23492 1 -124.418 40.7911 -10.748 0.000461819 1 
23493 1 -121.639 40.3309 -10.2201 0.000481481 1 
23494 1 -123.378 41.1624 -8.09886 0.00303172 1 
23495 1 -122.678 42.993 -10.1979 0.000815328 1 
23496 1 -124.419 43.8181 -8.0766 0.00301373 1 
23497 1 -121.637 43.3637 -7.54451 0.00532022 1 
23498 1 -123.4 44.1939 -5.41754 0.033492 1 
23499 1 -122.679 46.0175 -7.56071 0.00570901 1 
23500 1 -124.409 46.8567 -5.46425 0.0291607 1 
23501 1 -121.65 46.3952 -4.95282 0.0331243 1 
23502 1 -158.809 47.2516 -2.81959 0.325425 1 
23503 1 -158.074 49.0788 -4.91761 0.0686861 1 
23504 1 -159.852 49.9311 -2.96455 0.381831 1 
23505 1 -157.039 49.4891 -2.19708 5.78256 5 
23506 1 -159.004 50.4875 -0.489755 9.79205 5 
23507 1 -157.971 52.1945 -2.26881 3.0689 5 
23558 1 -120.944 39.1484 -14.9928 6.91026e-05 1 
23559 1 -118.167 38.6869 -14.4661 8.52706e-05 1 
23560 1 -119.903 39.5067 -12.3407 0.000196819 1 
23561 1 -119.205 41.3495 -14.4382 0.00011769 1 
23562 1 -120.941 42.1698 -12.3173 0.000221153 1 
23563 1 -118.163 41.7082 -11.7875 0.000298622 1 
23564 1 -119.898 42.5332 -9.66666 0.00079408 1 
23565 1 -119.201 44.3714 -11.7729 0.000442407 1 
23566 1 -120.938 45.1937 -9.66382 0.00110094 1 
23567 1 -118.157 44.7323 -9.125 0.00293705 1 
23568 1 -119.896 45.557 -7.02769 0.00595275 1 
23569 1 -154.625 47.4006 -9.14055 0.00275731 1 
23570 1 -156.366 48.2348 -7.04693 0.00762148 1 
23571 1 -153.593 47.762 -6.53504 0.0231713 1 
23572 1 -155.339 48.627 -4.45868 0.0704619 1 
23573 1 -154.62 50.4595 -6.52049 0.00882473 1 
23574 1 -156.338 51.3027 -4.38106 0.0507857 1 
23575 1 -153.571 50.8453 -3.94796 0.0502904 1 
23576 1 -155.219 51.6962 -1.78526 9.5208 5 
23577 1 -154.621 53.5392 -3.77237 0.534033 5 
23578 1 -156.334 54.2761 -0.975505 12.6654 5 
23579 1 -153.457 53.8545 -1.14753 4.0087 5 
23580 1 -190.027 56.544 -1.20923 5.35458 5 
23636 1 -116.429 40.8876 -13.9116 0.000153286 1 
23638 1 -117.467 43.5511 -13.8897 0.00017728 1 
23639 1 -114.691 43.0885 -13.3638 0.00023434 1 
23640 1 -116.425 43.9087 -11.2433 0.00055184 1 
23641 1 -151.151 45.7547 -13.3481 0.000320151 1 
23642 1 -152.887 46.5755 -11.2397 0.00105333 1 
23643 1 -150.109 46.1113 -10.7128 0.0011698 1 
23644 1 -151.846 46.933 -8.61378 0.00718514 1 
23645 1 -151.145 48.7862 -10.7067 0.00124656 1 
23646 1 -152.882 49.6166 -8.6146 0.00393321 1 
23647 1 -150.1 49.1503 -8.09483 0.00475196 1 
23648 1 -151.839 49.9936 -6.02797 0.0168603 1 
23649 1 -151.133 51.8408 -8.0619 0.00306954 1 
23650 1 -152.88 52.6871 -5.95612 0.0230895 1 
23651 1 -150.07 52.2149 -5.45202 0.0193313 1 
23652 1 -151.825 53.0539 -3.40796 0.231039 1 
23653 1 -151.1 54.8925 -5.36699 0.0245546 1 
23654 1 -188.233 55.7025 -3.19669 0.229854 1 
23655 1 -185.468 55.2585 -2.66982 0.512829 1 
23656 1 -187.195 56.1945 -0.29609 12.9881 5 
23717 1 -146.64 44.4735 -14.9408 0.000148119 1 
23718 1 -148.374 45.2914 -12.8241 0.000354215 1 
23719 1 -147.678 47.1426 -14.9184 0.000183473 1 
23720 1 -149.411 47.9627 -12.8086 0.000418743 1 
23721 1 -146.635 47.4994 -12.2869 0.000418616 1 
23722 1 -148.367 48.3223 -10.1823 0.00110756 1 
23723 1 -147.67 50.1756 -12.2646 0.000424824 1 
23724 1 -149.402 51.0035 -10.1621 0.00112666 1 
23725 1 -146.625 50.5394 -9.64124 0.00122541 1 
23726 1 -148.352 51.3731 -7.5463 0.00541613 1 
23727 1 -147.656 53.2193 -9.59872 0.000906108 1 
23728 1 -149.38 54.0517 -7.48714 0.0025753 1 
23729 1 -146.602 53.5944 -6.95589 0.00936972 1 
23730 1 -183.758 54.4265 -4.83281 0.0304051 1 
23731 1 -183.067 56.2523 -6.90657 0.00283648 1 
23733 1 -182.04 56.6032 -4.24074 0.0384203 1 
23802 1 -144.9 46.6798 -14.3978 0.000193494 1 
23804 1 -145.937 49.3528 -14.3725 0.000206474 1 
23805 1 -143.16 48.8903 -13.8537 0.000253421 1 
23806 1 -144.894 49.7126 -11.746 0.00052309 1 
23807 1 -144.196 51.5657 -13.8216 0.000171287 1 
23808 1 -145.928 52.3904 -11.7116 0.000245775 1 
23809 1 -143.151 51.9293 -11.1962 0.000437172 1 
23810 1 -144.883 52.7577 -9.08476 0.00098314 1 
23811 1 -179.609 54.6038 -11.1508 0.000132834 1 
23812 1 -181.34 55.4276 -9.03523 0.000650526 1 
23813 1 -178.559 54.971 -8.51706 0.0010414 1 
23814 1 -180.295 55.7945 -6.40075 0.00898488 1 
23843 1 -177.877 53.7794 -13.2638 0.000105743 1 
23844 1 -177.865 56.8135 -10.5867 0.000223325 1 
23855 1 -34.1034 11.5925 -14.5359 8.2982e-05 1 
23856 1 -35.153 14.2634 -14.4698 8.73077e-05 1 
23857 1 -34.1116 14.6186 -11.8298 0.000230549 1 
23858 1 -35.1637 17.289 -11.7534 0.000141703 1 
23859 1 -34.1285 17.6423 -9.10769 0.000373 1 
23860 1 -35.1814 20.3078 -9.02444 0.000375627 1 
23861 1 -69.5767 20.655 -6.37614 0.0019762 1 
23862 1 -70.6241 23.3162 -6.30023 0.00415074 1 
23863 1 -69.5965 23.6398 -3.65845 0.0465216 1 
23864 1 -70.6406 26.3504 -3.57039 0.0856163 1 
23865 1 -70.501 29.3117 -0.834665 6.39266 5 
23885 1 -32.3729 13.8 -13.9551 9.59962e-05 1 
23887 1 -33.4226 16.4703 -13.8845 8.10167e-05 1 
23888 1 -30.6429 16.007 -13.3702 8.51704e-05 1 
23889 1 -32.3835 16.8255 -11.2404 0.000168461 1 
23890 1 -31.6921 18.6754 -13.2969 7.28389e-05 1 
23891 1 -33.4349 19.4931 -11.1627 0.000125562 1 
23892 1 -30.6546 19.0298 -10.6493 0.000129045 1 
23893 1 -32.4004 19.8456 -8.51494 0.000342117 1 
23894 1 -67.1269 21.6956 -10.5733 9.00601e-05 1 
23895 1 -68.8732 22.51 -8.43711 0.000305838 1 
23896 1 -66.0929 22.0459 -7.92347 0.000428462 1 
23897 1 -67.8425 22.8581 -5.79387 0.00337998 1 
23898 1 -67.1369 24.7133 -7.84193 0.00114501 1 
23899 1 -68.8919 25.5208 -5.71381 0.00979297 1 
23900 1 -66.0926 25.0607 -5.18806 0.0152233 1 
23901 1 -67.869 25.8633 -3.12051 0.203307 1 
23902 1 -67.1229 27.722 -5.09274 0.0287767 1 
23903 1 -68.8358 28.5096 -2.94038 0.32183 1 
23904 1 -66.0561 28.0627 -2.3378 1.51049 5 
23905 1 -102.538 30.6666 -2.31364 5.69589 5 
23929 1 -27.1723 17.3943 -14.9139 5.5502e-05 1 
23930 1 -28.9124 18.2127 -12.7822 8.5029e-05 1 
23931 1 -63.6424 20.0606 -14.8428 5.42959e-05 1 
23932 1 -65.3836 20.8787 -12.7086 6.79536e-05 1 
23933 1 -62.6043 20.4166 -12.1925 9.19798e-05 1 
23934 1 -64.3474 21.232 -10.0577 0.000115101 1 
23935 1 -63.6512 23.0805 -12.1199 8.8318e-05 1 
23936 1 -65.3942 23.8969 -9.98192 0.000199341 1 
23937 1 -62.6165 23.4335 -9.46657 0.000306685 1 
23938 1 -64.3604 24.2472 -7.32861 0.0014728 1 
23939 1 -63.6583 26.0963 -9.38569 0.00102491 1 
23940 1 -65.3937 26.9111 -7.23421 0.00369964 1 
23941 1 -62.6232 26.453 -6.7135 0.00755568 1 
23942 1 -64.3506 27.2754 -4.53939 0.0441978 1 
23943 1 -63.6604 29.1016 -6.6466 0.0174624 1 
23944 1 -100.816 29.8978 -4.44931 0.647035 5 
23945 1 -98.0977 29.4553 -3.88978 0.607248 5 
23946 1 -99.9898 30.1462 -1.00645 14.0021 5 
23947 1 -99.124 32.0561 -3.91633 0.642905 5 
23948 1 -100.902 32.8943 -1.85647 5.78752 5 
23949 1 -98.1664 32.4426 -1.30614 6.49261 5 
23950 1 -99.1855 35.0892 -1.38586 3.47949 5 
23978 1 -60.8633 19.5992 -14.3271 6.23743e-05 1 
23980 1 -61.9094 22.2634 -14.2562 6.32066e-05 1 
23981 1 -59.1307 21.8026 -13.7395 6.31486e-05 1 
23982 1 -60.8727 22.6189 -11.6031 7.27379e-05 1 
23983 1 -60.1752 24.4648 -13.6696 0.000110348 1 
23984 1 -61.9171 25.2809 -11.5307 0.000247604 1 
23985 1 -59.1391 24.8211 -11.0129 0.00019504 1 
23986 1 -60.8838 25.6355 -8.87152 0.00108719 1 
23987 1 -60.1805 27.4791 -10.9421 0.000899315 1 
23988 1 -61.9219 28.2905 -8.79547 0.00294995 1 
23989 1 -59.1488 27.8385 -8.26994 0.00543455 1 