ITEM: TIMESTEP
0
ITEM: NUMBER OF ATOMS
35626
ITEM: BOX BOUNDS xy xz yz pp pp ss
0 788.910689943 268.836440436
0 38.374578741 0
-147.1363575785518 155.973398884462 0
ITEM: ATOMS id type x y z c_csym c_cna 
124288 1 509.12 37.0355 -14.7994 4.60442e-05 1 
124320 1 509.436 27.992 -14.98 3.11024e-05 1 
124324 1 511.107 31.6676 -14.6868 4.50091e-05 1 
124325 1 510.114 34.3511 -14.7434 4.8219e-05 1 
124328 1 512.778 35.3415 -14.3983 7.58558e-05 1 
124329 1 511.783 38.0263 -14.4568 8.15766e-05 1 
124356 1 511.425 22.6254 -14.8755 5.13383e-05 1 
124357 1 510.43 25.3087 -14.927 3.99207e-05 1 
124360 1 513.094 26.3007 -14.5765 5.24723e-05 1 
124361 1 512.101 28.9842 -14.631 4.79303e-05 1 
124364 1 514.764 29.9754 -14.2813 6.65456e-05 1 
124365 1 513.771 32.6583 -14.3392 6.5306e-05 1 
124368 1 516.434 33.6472 -13.9924 0.000103686 1 
124369 1 515.441 36.3301 -14.0547 0.00014218 1 
124372 1 518.104 37.3181 -13.7135 0.000249918 1 
124392 1 513.415 17.2592 -14.781 7.1653e-05 1 
124393 1 512.42 19.9423 -14.8266 5.83697e-05 1 
124396 1 515.082 20.9335 -14.4745 5.91665e-05 1 
124397 1 514.088 23.617 -14.5241 5.55759e-05 1 
124400 1 516.749 24.6086 -14.1729 5.74804e-05 1 
124401 1 515.756 27.2923 -14.2257 6.26314e-05 1 
124404 1 518.418 28.2836 -13.8756 8.60394e-05 1 
124405 1 517.426 30.9655 -13.9321 9.18375e-05 1 
124408 1 519.097 34.6352 -13.6479 0.000183718 1 
124422 1 515.402 11.8891 -14.6981 0.000116461 1 
124423 1 514.409 14.5754 -14.7387 9.88816e-05 1 
124426 1 517.071 15.5665 -14.3866 8.61502e-05 1 
124427 1 516.077 18.2501 -14.4285 6.48442e-05 1 
124430 1 518.738 19.2405 -14.0776 5.43248e-05 1 
124431 1 517.743 21.9246 -14.1234 5.85352e-05 1 
124434 1 519.41 25.6004 -13.823 8.30861e-05 1 
124439 1 515.711 2.81946 -14.9005 0.000109603 1 
124440 1 514.72 5.51196 -14.9551 8.53695e-05 1 
124443 1 517.385 6.50599 -14.611 7.8449e-05 1 
124444 1 516.394 9.19911 -14.6566 9.45043e-05 1 
124447 1 519.057 10.1918 -14.3092 0.000110014 1 
124448 1 518.065 12.8811 -14.3478 0.000122332 1 
124450 1 519.732 16.5565 -14.0362 6.56143e-05 1 
124451 1 516.701 0.129738 -14.8412 0.000125643 1 
124453 1 519.365 1.1209 -14.5026 0.000121506 1 
124454 1 518.376 3.81219 -14.5596 9.55994e-05 1 
128885 1 474.677 30.3666 -14.9248 4.94902e-05 1 
128886 1 473.688 33.055 -14.9677 4.72122e-05 1 
128889 1 476.354 34.0496 -14.6312 4.99576e-05 1 
128890 1 475.362 36.7384 -14.6695 5.82698e-05 1 
128892 1 478.026 37.7333 -14.3298 5.98752e-05 1 
128921 1 476.654 24.9931 -14.8363 6.8797e-05 1 
128922 1 475.665 27.6794 -14.881 5.60354e-05 1 
128925 1 478.331 28.6747 -14.5519 7.92162e-05 1 
128926 1 477.343 31.362 -14.5918 5.97845e-05 1 
128929 1 480.008 32.3591 -14.2588 9.12622e-05 1 
128930 1 479.019 35.046 -14.2944 6.28245e-05 1 
128933 1 481.684 36.0435 -13.9558 9.69671e-05 1 
128957 1 478.637 19.6226 -14.7432 5.75345e-05 1 
128958 1 477.644 22.3075 -14.7904 6.71983e-05 1 
128961 1 480.312 23.3003 -14.4661 9.34837e-05 1 
128962 1 479.32 25.9872 -14.5104 9.65489e-05 1 
128965 1 481.988 26.9828 -14.1837 0.000112336 1 
128966 1 480.997 29.6716 -14.2224 0.000109025 1 
128969 1 483.665 30.6698 -13.8907 0.000150327 1 
128970 1 482.675 33.3577 -13.9236 0.000138962 1 
128973 1 485.341 34.3564 -13.5842 0.000237172 1 
128974 1 484.35 37.0404 -13.6141 0.000168884 1 
128976 1 487.014 38.0346 -13.271 0.000232705 1 
128989 1 478.955 10.5823 -14.9258 6.28312e-05 1 
128990 1 477.959 13.2642 -14.9723 7.13386e-05 1 
128993 1 480.626 14.2544 -14.6471 7.02618e-05 1 
128994 1 479.631 16.938 -14.6952 5.8275e-05 1 
128997 1 482.3 17.9296 -14.37 5.51833e-05 1 
128998 1 481.305 20.6144 -14.4189 7.03998e-05 1 
129001 1 483.975 21.6067 -14.0928 9.7411e-05 1 
129002 1 482.98 24.294 -14.1405 0.000111242 1 
129005 1 485.649 25.2888 -13.8115 0.000124985 1 
129006 1 484.656 27.9795 -13.8542 0.000140243 1 
129009 1 487.325 28.977 -13.5198 0.000166228 1 
129010 1 486.332 31.6687 -13.5542 0.000236479 1 
129013 1 488.999 32.6662 -13.2126 0.00036568 1 
129014 1 488.006 35.3528 -13.2413 0.000337886 1 
129017 1 490.668 36.3454 -12.8989 0.000350733 1 
129018 1 491.735 38.2332 -14.7618 0.000115293 1 
129025 1 480.947 5.22036 -14.8385 5.328e-05 1 
129026 1 479.951 7.90116 -14.881 5.31623e-05 1 
129029 1 482.615 8.89088 -14.5532 7.9271e-05 1 
129030 1 481.62 11.5721 -14.5995 8.02431e-05 1 
129033 1 484.289 12.5635 -14.2729 7.03908e-05 1 
129034 1 483.294 15.2459 -14.321 5.76452e-05 1 
129037 1 485.965 16.2383 -13.9914 5.09846e-05 1 
129038 1 484.97 18.9215 -14.0421 6.95779e-05 1 
129041 1 487.64 19.9143 -13.7098 0.000108421 1 
129042 1 486.645 22.6001 -13.7627 0.000113695 1 
129045 1 489.315 23.5948 -13.4268 0.000130057 1 
129046 1 488.319 26.2846 -13.477 0.000130578 1 
129049 1 490.988 27.2808 -13.1364 0.000181274 1 
129050 1 489.993 29.9744 -13.1792 0.000238591 1 
129051 1 492.058 29.1797 -14.9883 9.1862e-05 1 
129053 1 492.659 30.9701 -12.8348 0.000294356 1 
129054 1 491.663 33.6607 -12.8691 0.000366981 1 
129055 1 493.727 32.8635 -14.6879 0.000104793 1 
129056 1 492.731 35.55 -14.7257 0.000123821 1 
129057 1 494.324 34.6525 -12.5278 0.0002641 1 
129058 1 493.328 37.3356 -12.5613 0.000328487 1 
129059 1 495.393 36.5411 -14.3891 9.89186e-05 1 
129060 1 495.989 38.3253 -12.2299 0.000306032 1 
129062 1 481.942 2.53977 -14.7988 7.41931e-05 1 
129065 1 484.604 3.52995 -14.4672 8.86402e-05 1 
129066 1 483.61 6.21033 -14.5088 7.46339e-05 1 
129069 1 486.275 7.20175 -14.181 0.000100095 1 
129070 1 485.282 9.88222 -14.2262 9.15444e-05 1 
129073 1 487.951 10.8761 -13.8961 6.15683e-05 1 
129074 1 486.959 13.5567 -13.9426 4.8668e-05 1 
129077 1 489.628 14.5515 -13.6071 6.43411e-05 1 
129078 1 488.635 17.2318 -13.657 7.54995e-05 1 
129081 1 491.304 18.2266 -13.3179 0.00011435 1 
129082 1 490.31 20.9087 -13.3722 0.000149121 1 
129085 1 492.978 21.9047 -13.0289 0.000198442 1 
129086 1 491.984 24.5905 -13.0846 0.000199287 1 
129087 1 494.048 23.8026 -14.8908 9.13634e-05 1 
129088 1 493.053 26.4896 -14.9417 8.87469e-05 1 
129089 1 494.65 25.5865 -12.7388 0.000252132 1 
129090 1 493.655 28.2768 -12.7915 0.000224708 1 
129091 1 495.718 27.4854 -14.5983 8.66967e-05 1 
129092 1 494.723 30.1745 -14.6457 8.67887e-05 1 
129093 1 496.318 29.2732 -12.4455 0.000211045 1 
129094 1 495.322 31.9644 -12.4904 0.000241566 1 
129095 1 497.386 31.1691 -14.3038 6.21055e-05 1 
129096 1 496.39 33.8561 -14.3483 7.37002e-05 1 
129097 1 497.983 32.9584 -12.1491 0.000161408 1 
129098 1 496.986 35.6434 -12.1911 0.000184435 1 
129099 1 499.053 34.8489 -14.0105 6.15624e-05 1 
129100 1 498.057 37.5327 -14.0547 8.67535e-05 1 
129101 1 499.65 36.6353 -11.8579 0.000207872 1 
129102 1 485.598 0.849112 -14.4279 0.000113159 1 
129105 1 488.262 1.84041 -14.0967 0.000117609 1 
129106 1 487.268 4.52136 -14.1381 0.000113955 1 
129109 1 489.936 5.5152 -13.8081 8.69361e-05 1 
129110 1 488.943 8.19587 -13.8514 7.57514e-05 1 
129113 1 491.613 9.1926 -13.5171 6.38323e-05 1 
129114 1 490.621 11.8723 -13.5608 6.84853e-05 1 
129117 1 493.288 12.8698 -13.221 8.7091e-05 1 
129118 1 492.296 15.5475 -13.2672 9.63096e-05 1 
129121 1 494.962 16.545 -12.9241 0.000109834 1 
129122 1 493.97 19.2232 -12.9743 0.00013838 1 
129123 1 496.033 18.4384 -14.7888 5.79052e-05 1 
129124 1 495.041 21.1191 -14.8388 7.71707e-05 1 
129125 1 496.633 20.2213 -12.6288 0.00012194 1 
129126 1 495.642 22.9018 -12.6827 0.000201653 1 
129127 1 497.705 22.1162 -14.4955 7.32354e-05 1 
129128 1 496.712 24.7991 -14.5471 8.75242e-05 1 
129129 1 498.304 23.9002 -12.3377 0.000176769 1 
129130 1 497.312 26.584 -12.3928 0.000234178 1 
129131 1 499.375 25.7965 -14.204 7.52714e-05 1 
129132 1 498.381 28.4817 -14.2552 7.11593e-05 1 
129133 1 499.972 27.5834 -12.0493 0.000197262 1 
129134 1 498.979 30.2706 -12.1019 0.000164827 1 
129135 1 501.045 29.4784 -13.9123 5.38572e-05 1 
129136 1 500.05 32.1637 -13.9629 4.42612e-05 1 
129137 1 501.641 31.2681 -11.7591 0.000146024 1 
129138 1 500.645 33.953 -11.8109 0.000159576 1 
129139 1 502.714 33.1588 -13.622 4.54146e-05 1 
129140 1 501.719 35.8429 -13.6727 5.51896e-05 1 
129141 1 503.311 34.95 -11.4719 0.000156578 1 
129142 1 502.318 37.6313 -11.5223 0.000150609 1 
129143 1 504.386 36.8383 -13.3327 6.33013e-05 1 
129145 1 491.925 0.151508 -13.72 5.97352e-05 1 
129146 1 490.93 2.83386 -13.7648 7.88467e-05 1 
129149 1 493.599 3.82953 -13.4294 5.08855e-05 1 
129150 1 492.606 6.51155 -13.4741 5.66059e-05 1 
129153 1 495.274 7.50931 -13.1356 5.51006e-05 1 
129154 1 494.281 10.1907 -13.1781 7.48966e-05 1 
129155 1 496.346 9.40051 -14.9948 3.51254e-05 1 
129157 1 496.947 11.1896 -12.8364 9.65487e-05 1 
129158 1 495.954 13.868 -12.8785 9.69431e-05 1 
129159 1 498.018 13.0793 -14.6974 5.03785e-05 1 
129160 1 497.025 15.759 -14.7418 5.10709e-05 1 
129161 1 498.617 14.8665 -12.5354 9.58533e-05 1 
129162 1 497.625 17.5434 -12.58 9.80477e-05 1 
129163 1 499.689 16.7566 -14.3998 5.43506e-05 1 
129164 1 498.697 19.436 -14.4461 5.77508e-05 1 
129165 1 500.286 18.5427 -12.238 0.000123692 1 
129166 1 499.294 21.2206 -12.2852 0.000117589 1 
129167 1 501.36 20.4339 -14.1043 7.96457e-05 1 
129168 1 500.367 23.1142 -14.153 7.7266e-05 1 
129169 1 501.954 22.221 -11.9453 0.000223186 1 
129170 1 500.964 24.9003 -11.9959 0.000196115 1 
129171 1 503.031 24.1128 -13.8104 7.17558e-05 1 
129172 1 502.038 26.7948 -13.8607 6.1617e-05 1 
129173 1 503.626 25.9027 -11.6532 0.000166447 1 
129174 1 502.634 28.5842 -11.7051 0.000160541 1 
129175 1 504.702 27.7925 -13.5165 4.76599e-05 1 
129176 1 503.709 30.475 -13.5692 4.89911e-05 1 
129177 1 505.298 29.5835 -11.3607 0.000122493 1 
129178 1 504.305 32.2661 -11.4169 0.000155046 1 
129179 1 506.374 31.4709 -13.225 5.58039e-05 1 
129180 1 505.38 34.1545 -13.2799 5.20143e-05 1 
129181 1 506.971 33.2636 -11.0731 0.000137826 1 
129182 1 505.979 35.9479 -11.1288 0.000166966 1 
129183 1 508.046 35.1493 -12.9354 7.74907e-05 1 
129184 1 507.053 37.8331 -12.9901 8.181e-05 1 
129185 1 508.645 36.9426 -10.7811 0.000300696 1 
129186 1 494.593 1.14682 -13.3824 5.45996e-05 1 
129189 1 497.261 2.14221 -13.042 6.45772e-05 1 
129190 1 496.268 4.82612 -13.0904 4.26226e-05 1 
129191 1 498.333 4.03184 -14.9031 2.56385e-05 1 
129192 1 497.339 6.71695 -14.9501 2.5018e-05 1 
129193 1 498.933 5.82274 -12.75 6.27821e-05 1 
129194 1 497.94 8.5078 -12.7947 7.77812e-05 1 
129195 1 500.005 7.71308 -14.6099 3.31737e-05 1 
129196 1 499.012 10.3976 -14.6542 4.09023e-05 1 
129197 1 500.604 9.50591 -12.4538 9.05255e-05 1 
129198 1 499.611 12.1882 -12.4946 0.000126944 1 
129199 1 501.676 11.3942 -14.3138 5.12448e-05 1 
129200 1 500.683 14.0765 -14.3563 5.98669e-05 1 
129201 1 502.274 13.1854 -12.155 0.000165537 1 
129202 1 501.279 15.8648 -12.1948 0.000125731 1 
129203 1 503.347 15.0733 -14.0154 9.31051e-05 1 
129204 1 502.353 17.754 -14.0585 8.29627e-05 1 
129205 1 503.942 16.8625 -11.8565 0.000340459 1 
129206 1 502.947 19.5425 -11.8992 0.000315596 1 
129207 1 505.019 18.7508 -13.715 6.4056e-05 1 
129208 1 504.024 21.4316 -13.7617 6.85668e-05 1 
129209 1 505.614 20.5404 -11.5569 0.000230938 1 
129210 1 504.618 23.2215 -11.6052 0.000235009 1 
129211 1 506.69 22.4279 -13.4158 5.48409e-05 1 
129212 1 505.695 25.1105 -13.4657 5.49194e-05 1 
129213 1 507.284 24.2201 -11.259 0.000178772 1 
129214 1 506.29 26.9025 -11.3078 0.000125857 1 
129215 1 508.361 26.1059 -13.1179 5.60387e-05 1 
129216 1 507.367 28.7885 -13.1707 4.44825e-05 1 
129217 1 508.954 27.8989 -10.9597 0.000155267 1 
129218 1 507.963 30.58 -11.0142 0.000180542 1 
129219 1 510.032 29.7823 -12.8226 4.90174e-05 1 
129220 1 509.039 32.4656 -12.8787 6.55591e-05 1 
129221 1 510.627 31.5751 -10.6662 0.000219211 1 
129222 1 509.636 34.2604 -10.7243 0.000241798 1 
129223 1 511.704 33.458 -12.5301 0.000119553 1 
129224 1 510.711 36.1413 -12.5893 0.000130814 1 
129225 1 512.3 35.251 -10.3721 0.000439993 1 
129226 1 511.307 37.9317 -10.4339 0.000520377 1 
129227 1 513.373 37.1294 -12.2449 0.000245015 1 
129228 1 499.326 1.34615 -14.853 3.8687e-05 1 
129229 1 500.918 0.450557 -12.6469 0.000132363 1 
129230 1 499.925 3.13598 -12.7009 9.99429e-05 1 
129231 1 501.99 2.33849 -14.5122 6.37199e-05 1 
129232 1 500.997 5.02627 -14.563 4.152e-05 1 
129233 1 502.587 4.1289 -12.3619 0.000171489 1 
129234 1 501.596 6.81913 -12.4101 0.000113453 1 
129235 1 503.661 6.02018 -14.224 7.44704e-05 1 
129236 1 502.669 8.70864 -14.2703 5.17141e-05 1 
129237 1 504.258 7.81428 -12.0729 0.00018218 1 
129238 1 503.267 10.5022 -12.1152 0.000121332 1 
129239 1 505.334 9.7038 -13.9313 0.000108598 1 
129240 1 504.341 12.3902 -13.9737 9.35346e-05 1 
129241 1 505.932 11.4973 -11.778 0.000346827 1 
129242 1 504.938 14.1811 -11.8168 0.000348542 1 
129243 1 507.009 13.3862 -13.6301 0.000105665 1 
129244 1 506.014 16.0695 -13.6712 7.97151e-05 1 
129245 1 507.608 15.1773 -11.47 0.000313835 1 
129246 1 506.611 17.8594 -11.5113 0.000236698 1 
129247 1 508.682 17.0637 -13.3217 0.000102184 1 
129248 1 507.686 19.7456 -13.3671 7.79352e-05 1 
129249 1 509.28 18.8512 -11.1578 0.000358966 1 
129250 1 508.281 21.5352 -11.2079 0.000244381 1 
129251 1 510.352 20.7382 -13.0154 9.82614e-05 1 
129252 1 509.356 23.4221 -13.066 7.53529e-05 1 
129253 1 510.945 22.5277 -10.8534 0.000302134 1 
129254 1 509.949 25.2149 -10.9068 0.000233898 1 
129255 1 512.02 24.4143 -12.7132 0.00011581 1 
129256 1 511.025 27.0987 -12.7673 8.00616e-05 1 
129257 1 512.611 26.2056 -10.5503 0.000431173 1 
129258 1 511.618 28.8908 -10.6088 0.00026315 1 
129259 1 513.688 28.0908 -12.4149 0.000118189 1 
129260 1 512.696 30.7748 -12.4719 0.00010752 1 
129261 1 514.281 29.8843 -10.2528 0.000331322 1 
129262 1 513.291 32.5678 -10.3113 0.000491118 1 
129263 1 515.359 31.7654 -12.1204 0.000128877 1 
129264 1 514.367 34.4471 -12.1817 0.0001514 1 
129265 1 515.952 33.5571 -9.95811 0.000388975 1 
129266 1 514.96 36.2353 -10.0238 0.000668073 1 
129267 1 517.028 35.4334 -11.8363 0.000326618 1 
129268 1 516.034 38.1153 -11.9053 0.000518396 1 
129269 1 517.617 37.2168 -9.68501 0.0013317 1 
129270 1 503.58 1.43998 -12.3064 0.000259994 1 
129271 1 505.647 0.641202 -14.1162 0.000149618 1 
129272 1 504.653 3.33015 -14.1731 0.000107205 1 
129273 1 506.24 2.4286 -11.9707 0.000452951 1 
129274 1 505.248 5.12171 -12.0261 0.000304156 1 
129275 1 507.318 4.32194 -13.8353 0.000170876 1 
129276 1 506.326 7.01397 -13.886 0.000143524 1 
129277 1 507.913 6.1146 -11.693 0.000573852 1 
129278 1 506.923 8.80888 -11.738 0.000476299 1 
129279 1 508.993 8.00872 -13.5453 0.000145935 1 
129280 1 508.001 10.6994 -13.5893 0.000131842 1 
129281 1 509.593 9.80519 -11.3964 0.000502085 1 
129282 1 508.602 12.493 -11.4334 0.000352023 1 
129283 1 510.671 11.6951 -13.2404 0.000219923 1 
129284 1 509.677 14.3808 -13.2801 0.000166225 1 
129285 1 511.273 13.4878 -11.0757 0.000708733 1 
129286 1 510.277 16.1693 -11.1138 0.000467728 1 
129287 1 512.344 15.3725 -12.9249 0.000204484 1 
129288 1 511.348 18.0552 -12.9681 0.000114113 1 
129289 1 512.941 17.1564 -10.7543 0.000454492 1 
129290 1 511.943 19.8408 -10.8013 0.000392871 1 
129291 1 514.011 19.0454 -12.6128 0.000142435 1 
129292 1 513.015 21.7296 -12.6611 0.000141892 1 
129293 1 514.601 20.8306 -10.4435 0.000602012 1 
129294 1 513.605 23.5193 -10.495 0.000533162 1 
129295 1 515.674 22.7208 -12.3077 0.000126174 1 
129296 1 514.68 25.406 -12.3599 0.000116521 1 
129297 1 516.259 24.5106 -10.1412 0.000408625 1 
129298 1 515.269 27.1972 -10.1955 0.000344712 1 
129299 1 517.34 26.3986 -12.0078 0.000120874 1 
129300 1 516.35 29.0827 -12.0621 0.000140537 1 
129301 1 517.929 28.1917 -9.84202 0.000388605 1 
129302 1 516.942 30.8768 -9.89742 0.000425374 1 
129303 1 519.011 30.0743 -11.71 0.000264753 1 
129304 1 518.021 32.7542 -11.7704 0.000234065 1 
129305 1 519.605 31.8679 -9.54156 0.00097093 1 
129306 1 518.613 34.5416 -9.60807 0.000984715 1 
129307 1 519.69 36.419 -11.4961 0.000660723 1 
129308 1 508.311 1.63084 -13.7774 0.000226463 1 
129309 1 509.898 0.727907 -11.5704 0.000894232 1 
129310 1 508.905 3.41897 -11.6377 0.000658113 1 
129311 1 510.977 2.62245 -13.4379 0.000225915 1 
129312 1 509.985 5.31528 -13.4955 0.000164366 1 
129313 1 511.576 4.41335 -11.2993 0.000554009 1 
129314 1 510.584 7.11019 -11.3536 0.000463325 1 
129315 1 512.654 6.31072 -13.1519 0.000184758 1 
129316 1 511.663 9.0047 -13.199 0.00019648 1 
129317 1 513.257 8.10832 -11.0044 0.000616524 1 
129318 1 512.265 10.8016 -11.042 0.000732312 1 
129319 1 514.33 10.0003 -12.8472 0.00030968 1 
129320 1 513.338 12.6888 -12.8857 0.000329505 1 
129321 1 514.932 11.7947 -10.6788 0.00119871 1 
129322 1 513.939 14.4763 -10.7111 0.000898785 1 
129323 1 516.001 13.6799 -12.5296 0.000283715 1 
129324 1 515.007 16.3622 -12.5687 0.00017416 1 
129325 1 516.596 15.4631 -10.3508 0.000567587 1 
129326 1 515.6 18.1435 -10.3958 0.00040922 1 
129327 1 517.667 17.3514 -12.2147 0.000139409 1 
129328 1 516.67 20.0356 -12.2592 0.000131306 1 
129329 1 518.257 19.1337 -10.0445 0.000421187 1 
129330 1 517.257 21.8231 -10.0916 0.000642182 1 
129331 1 519.329 21.0267 -11.9092 0.000138222 1 
129332 1 518.333 23.7132 -11.9569 0.000140361 1 
129333 1 519.916 22.8169 -9.74526 0.000541062 1 
129334 1 518.918 25.5075 -9.79292 0.000452665 1 
129335 1 512.567 1.72061 -11.2325 0.000742234 1 
129336 1 514.635 0.925531 -13.0334 0.000277463 1 
129337 1 513.645 3.61638 -13.0965 0.000229812 1 
129338 1 515.237 2.71637 -10.8921 0.000626278 1 
129339 1 514.248 5.4105 -10.9555 0.000502139 1 
129340 1 516.313 4.6114 -12.7534 0.000221785 1 
129341 1 515.322 7.3069 -12.8042 0.000236825 1 
129342 1 516.917 6.40816 -10.6058 0.000744382 1 
129343 1 515.925 9.10591 -10.647 0.00114853 1 
129344 1 517.986 8.30137 -12.4564 0.000245367 1 
129345 1 516.994 10.9937 -12.4942 0.000327023 1 
129346 1 518.584 10.099 -10.2927 0.00125848 1 
129347 1 517.591 12.7841 -10.3185 0.000981042 1 
129348 1 519.654 11.9842 -12.1435 0.00037934 1 
129349 1 518.661 14.6691 -12.1762 0.000233412 1 
129350 1 519.254 16.4486 -9.99872 0.000712602 1 
129351 1 516.224 0.0282402 -10.8204 0.000456386 1 
129352 1 517.302 1.91829 -12.6936 0.000281737 1 
129353 1 518.893 1.02113 -10.4818 0.00054874 1 
129354 1 517.906 3.71034 -10.5508 0.000902785 1 
129355 1 519.967 2.90954 -12.3554 0.000301056 1 
129356 1 518.977 5.60459 -12.4111 0.000196492 1 
129357 1 519.578 7.40001 -10.2608 0.00084976 1 
133416 1 437.936 38.1786 -14.9872 3.25615e-05 1 
133453 1 439.924 32.8079 -14.8942 2.41759e-05 1 
133454 1 438.93 35.494 -14.9419 2.28083e-05 1 
133457 1 441.596 36.4882 -14.6003 2.97424e-05 1 
133489 1 441.912 27.4356 -14.7898 4.72103e-05 1 
133490 1 440.918 30.1214 -14.8435 3.79749e-05 1 
133493 1 443.583 31.1119 -14.5011 6.12586e-05 1 
133494 1 442.589 33.8005 -14.5525 3.76514e-05 1 
133497 1 445.253 34.7923 -14.2124 6.98173e-05 1 
133498 1 444.26 37.4817 -14.2598 4.68086e-05 1 
133520 1 442.226 18.3903 -14.9734 2.86172e-05 1 
133524 1 443.898 22.0662 -14.6788 4.61547e-05 1 
133525 1 442.906 24.7506 -14.7343 5.08427e-05 1 
133528 1 445.571 25.7396 -14.3877 7.95589e-05 1 
133529 1 444.577 28.4247 -14.4455 8.51399e-05 1 
133532 1 447.24 29.412 -14.1034 0.000159668 1 
133533 1 446.247 32.1015 -14.1607 0.000106248 1 
133536 1 448.911 33.0912 -13.8221 0.000172146 1 
133537 1 447.918 35.784 -13.8738 0.000138614 1 
133540 1 450.586 36.777 -13.5331 0.000143362 1 
133556 1 444.215 13.0207 -14.8697 4.85423e-05 1 
133557 1 443.22 15.7056 -14.9209 3.63974e-05 1 
133560 1 445.884 16.6964 -14.571 4.77756e-05 1 
133561 1 444.891 19.3816 -14.6243 4.467e-05 1 
133564 1 447.555 20.3718 -14.2742 6.75048e-05 1 
133565 1 446.563 23.0557 -14.3301 6.93893e-05 1 
133568 1 449.227 24.0432 -13.9821 0.000111629 1 
133569 1 448.234 26.7262 -14.0425 0.00015047 1 
133572 1 450.898 27.7122 -13.7005 0.000262776 1 
133573 1 449.904 30.3995 -13.7638 0.000243026 1 
133576 1 452.571 31.3895 -13.4241 0.000245425 1 
133577 1 451.579 34.0828 -13.4821 0.00017383 1 
133580 1 454.248 35.077 -13.1385 0.000195083 1 
133581 1 453.256 37.7714 -13.1869 0.000189988 1 
133582 1 455.322 36.9715 -14.9923 8.42439e-05 1 
133592 1 446.206 7.652 -14.7739 7.19382e-05 1 
133593 1 445.21 10.3363 -14.8204 5.7346e-05 1 
133596 1 447.873 11.326 -14.4695 5.71973e-05 1 
133597 1 446.878 14.011 -14.5191 5.23482e-05 1 
133600 1 449.539 15.0016 -14.1691 5.21312e-05 1 
133601 1 448.546 17.6871 -14.2206 6.12471e-05 1 
133604 1 451.209 18.6778 -13.8707 9.87386e-05 1 
133605 1 450.218 21.3609 -13.9245 0.000101699 1 
133608 1 452.88 22.3491 -13.5773 0.000129068 1 
133609 1 451.89 25.0296 -13.6369 0.000185003 1 
133612 1 454.552 26.0167 -13.2956 0.000240583 1 
133613 1 453.562 28.7005 -13.3605 0.000295325 1 
133616 1 456.228 29.6914 -13.0216 0.000272193 1 
133617 1 455.239 32.3824 -13.0832 0.00023704 1 
133618 1 457.304 31.5864 -14.8897 9.97056e-05 1 
133619 1 456.313 34.2788 -14.9432 8.3457e-05 1 
133620 1 457.907 33.3765 -12.7412 0.000212619 1 
133621 1 456.917 36.072 -12.7913 0.000231506 1 
133622 1 458.979 35.2717 -14.6 7.27179e-05 1 
133623 1 457.988 37.9645 -14.6454 8.40071e-05 1 
133624 1 459.582 37.065 -12.4441 0.000228088 1 
133628 1 448.196 2.2801 -14.688 0.000102354 1 
133629 1 447.202 4.96711 -14.7302 9.44026e-05 1 
133632 1 449.864 5.95674 -14.3793 7.56873e-05 1 
133633 1 448.869 8.64134 -14.4227 6.26296e-05 1 
133636 1 451.53 9.63086 -14.0733 4.92806e-05 1 
133637 1 450.534 12.3161 -14.1198 5.29359e-05 1 
133640 1 453.195 13.307 -13.7719 7.30673e-05 1 
133641 1 452.201 15.9931 -13.8201 8.70083e-05 1 
133644 1 454.862 16.9843 -13.4732 0.000119791 1 
133645 1 453.871 19.6681 -13.523 0.000117964 1 
133648 1 456.532 20.6568 -13.1791 0.000130842 1 
133649 1 455.542 23.3366 -13.2343 0.000166247 1 
133652 1 458.205 24.3238 -12.8959 0.000189405 1 
133653 1 457.217 27.0055 -12.9576 0.000244637 1 
133654 1 459.282 26.2105 -14.7744 9.5753e-05 1 
133655 1 458.293 28.8968 -14.8327 0.0001129 1 
133656 1 459.882 27.9949 -12.6225 0.000223503 1 
133657 1 458.895 30.6832 -12.6839 0.000244464 1 
133658 1 460.959 29.8867 -14.4961 0.00011172 1 
133659 1 459.969 32.5781 -14.5502 8.53954e-05 1 
133660 1 461.562 31.6727 -12.3483 0.000259763 1 
133661 1 460.573 34.3684 -12.4003 0.000191672 1 
133662 1 462.635 33.5686 -14.2117 9.2789e-05 1 
133663 1 461.644 36.2631 -14.2574 8.74718e-05 1 
133664 1 463.238 35.3573 -12.0604 0.000245944 1 
133665 1 462.245 38.0542 -12.0986 0.000282066 1 
133666 1 464.309 37.2528 -13.9151 0.00010967 1 
133668 1 451.852 0.581251 -14.2989 9.01746e-05 1 
133669 1 450.859 3.27061 -14.3387 9.47854e-05 1 
133672 1 453.52 4.25991 -13.9914 8.41789e-05 1 
133673 1 452.525 6.94596 -14.0306 5.24124e-05 1 
133676 1 455.187 7.93526 -13.6841 4.4623e-05 1 
133677 1 454.191 10.6208 -13.7262 5.10109e-05 1 
133680 1 456.853 11.6105 -13.381 5.49379e-05 1 
133681 1 455.857 14.2976 -13.4259 0.000121286 1 
133684 1 458.519 15.287 -13.0821 0.000151298 1 
133685 1 457.524 17.9739 -13.1292 0.000136497 1 
133686 1 459.593 17.1728 -14.9511 6.20301e-05 1 
133688 1 460.187 18.9605 -12.7875 0.000167007 1 
133689 1 459.195 21.6433 -12.8393 0.000139799 1 
133690 1 461.262 20.8431 -14.6631 6.13819e-05 1 
133691 1 460.272 23.5266 -14.7175 7.30367e-05 1 
133692 1 461.858 22.6279 -12.5041 0.00015365 1 
133693 1 460.87 25.3107 -12.5618 0.000184099 1 
133694 1 462.936 24.5132 -14.3831 8.62417e-05 1 
133695 1 461.947 27.1987 -14.4395 0.000105611 1 
133696 1 463.537 26.2968 -12.2309 0.000188628 1 
133697 1 462.55 28.9827 -12.2902 0.000249875 1 
133698 1 464.614 28.1862 -14.1067 0.000130673 1 
133699 1 463.625 30.8756 -14.161 0.000124574 1 
133700 1 465.22 29.9673 -11.9594 0.000448787 1 
133701 1 464.23 32.6597 -12.0141 0.000351887 1 
133702 1 466.293 31.8642 -13.8259 0.000127762 1 
133703 1 465.301 34.5581 -13.873 0.000105744 1 
133704 1 466.899 33.6459 -11.6778 0.000335018 1 
133705 1 465.904 36.3441 -11.7201 0.000271951 1 
133706 1 467.968 35.5468 -13.5332 0.000121157 1 
133707 1 466.973 38.2413 -13.5729 0.000130753 1 
133708 1 468.571 37.3296 -11.3792 0.000296228 1 
133709 1 454.515 1.57076 -13.9538 9.68632e-05 1 
133712 1 457.178 2.55937 -13.6096 9.98364e-05 1 
133713 1 456.183 5.24876 -13.6458 7.65925e-05 1 
133716 1 458.846 6.23741 -13.3008 8.14181e-05 1 
133717 1 457.85 8.9242 -13.3389 4.68476e-05 1 
133720 1 460.514 9.912 -12.9946 4.87221e-05 1 
133721 1 459.516 12.599 -13.0371 8.37448e-05 1 
133722 1 461.584 11.8022 -14.8593 4.47757e-05 1 
133723 1 460.588 14.4877 -14.9037 6.33795e-05 1 
133724 1 462.18 13.5869 -12.6938 0.000135943 1 
133725 1 461.183 16.2744 -12.7393 0.000211272 1 
133726 1 463.25 15.4745 -14.5633 6.13551e-05 1 
133727 1 462.255 18.1591 -14.6117 6.23902e-05 1 
133728 1 463.846 17.259 -12.3999 0.000142169 1 
133729 1 462.85 19.944 -12.4502 0.000167465 1 
133730 1 464.918 19.1442 -14.2761 7.12037e-05 1 
133731 1 463.926 21.8286 -14.3285 7.40968e-05 1 
133732 1 465.514 20.9263 -12.1187 0.000182068 1 
133733 1 464.524 23.6119 -12.1737 0.000157845 1 
133734 1 466.591 22.8142 -13.997 7.99047e-05 1 
133735 1 465.602 25.4997 -14.0514 9.72931e-05 1 
133736 1 467.193 24.5966 -11.8454 0.000151822 1 
133737 1 466.207 27.2816 -11.9016 0.000242892 1 
133738 1 468.271 26.4867 -13.7205 0.000109492 1 
133739 1 467.283 29.1736 -13.7742 0.000154768 1 
133740 1 468.879 28.2656 -11.5708 0.000346964 1 
133741 1 467.891 30.9517 -11.6273 0.00055457 1 
133742 1 469.952 30.1625 -13.4403 0.000146571 1 
133743 1 468.962 32.8531 -13.4888 0.000120899 1 
133744 1 470.563 31.9392 -11.2903 0.000445036 1 
133745 1 469.569 34.6327 -11.3381 0.000328205 1 
133746 1 471.629 33.8433 -13.1502 0.000121834 1 
133747 1 470.635 36.5359 -13.1925 0.000140591 1 
133748 1 472.239 35.6211 -10.9965 0.000362248 1 
133749 1 471.24 38.3156 -11.0374 0.000464816 1 
133750 1 473.302 37.5268 -12.8513 0.000144557 1 
133752 1 460.84 0.855403 -13.2303 0.000177151 1 
133753 1 459.843 3.54802 -13.2655 0.000126458 1 
133756 1 462.508 4.53694 -12.9206 0.000176199 1 
133757 1 461.511 7.2254 -12.9559 7.95573e-05 1 
133758 1 463.576 6.43023 -14.7789 6.01546e-05 1 
133759 1 462.58 9.11653 -14.8177 4.49105e-05 1 
133760 1 464.175 8.21277 -12.6114 6.77188e-05 1 
133761 1 463.177 10.8998 -12.6509 7.58884e-05 1 
133762 1 465.243 10.1046 -14.4757 4.74221e-05 1 
133763 1 464.247 12.7897 -14.518 4.97041e-05 1 
133764 1 465.84 11.887 -12.3092 0.000105686 1 
133765 1 464.843 14.5732 -12.3529 9.65121e-05 1 
133766 1 466.909 13.7762 -14.1795 5.81328e-05 1 
133767 1 465.913 16.4601 -14.2264 6.28192e-05 1 
133768 1 467.506 15.5577 -12.0162 0.000134517 1 
133769 1 466.509 18.2414 -12.0658 0.000179086 1 
133770 1 468.576 17.4455 -13.8934 7.8887e-05 1 
133771 1 467.582 20.1294 -13.9443 7.62529e-05 1 
133772 1 469.174 19.2255 -11.7376 0.000217668 1 
133773 1 468.181 21.9108 -11.7908 0.000170207 1 
133774 1 470.248 21.1167 -13.6151 6.87917e-05 1 
133775 1 469.258 23.8013 -13.6671 7.88241e-05 1 
133776 1 470.851 22.8988 -11.4625 0.000177823 1 
133777 1 469.865 25.5825 -11.5157 0.000219512 1 
133778 1 471.926 24.7905 -13.3382 8.03625e-05 1 
133779 1 470.939 27.4755 -13.3892 0.000107488 1 
133780 1 472.535 26.5703 -11.1856 0.000239627 1 
133781 1 471.55 29.253 -11.2373 0.000288374 1 
133782 1 473.607 28.4671 -13.0576 9.22136e-05 1 
133783 1 472.62 31.1537 -13.1046 0.000124989 1 
133784 1 474.218 30.2453 -10.9024 0.000206743 1 
133785 1 473.232 32.9308 -10.9501 0.000373906 1 
133786 1 475.286 32.1477 -12.7691 0.000105338 1 
133787 1 474.296 34.8357 -12.8113 0.000117896 1 
133788 1 475.897 33.9255 -10.6107 0.00025482 1 
133789 1 474.906 36.6126 -10.6548 0.000407377 1 
133790 1 476.961 35.831 -12.4721 0.000116405 1 
133791 1 477.569 37.6094 -10.3107 0.000379139 1 
133793 1 463.506 1.84526 -12.8869 0.000235695 1 
133794 1 465.568 1.05353 -14.7063 8.82055e-05 1 
133795 1 464.572 3.74269 -14.7421 8.99223e-05 1 
133796 1 466.171 2.8367 -12.5425 0.000250114 1 
133797 1 465.172 5.52582 -12.5754 0.000184531 1 
133798 1 467.236 4.73363 -14.3997 7.83809e-05 1 
133799 1 466.24 7.41942 -14.4363 5.19567e-05 1 
133800 1 467.836 6.51561 -12.2318 0.000116043 1 
133801 1 466.838 9.2009 -12.2688 5.85911e-05 1 
133802 1 468.903 8.40874 -14.0954 5.9853e-05 1 
133803 1 467.906 11.0925 -14.1358 6.01932e-05 1 
133804 1 469.502 10.19 -11.9279 0.000149225 1 
133805 1 468.504 12.8739 -11.9701 0.000173659 1 
133806 1 470.569 12.08 -13.7995 6.33745e-05 1 
133807 1 469.572 14.7625 -13.8451 6.47403e-05 1 
133808 1 471.168 13.8606 -11.6364 0.000180383 1 
133809 1 470.171 16.542 -11.6853 0.00025139 1 
133810 1 472.235 15.7497 -13.5156 7.21258e-05 1 
133811 1 471.241 18.4328 -13.5645 7.52208e-05 1 
133812 1 472.835 17.53 -11.3602 0.00023239 1 
133813 1 471.841 20.2145 -11.4111 0.000190968 1 
133814 1 473.906 19.4226 -13.2392 7.43368e-05 1 
133815 1 472.914 22.1065 -13.2882 6.4686e-05 1 
133816 1 474.509 21.2067 -11.0875 0.000154753 1 
133817 1 473.52 23.8889 -11.1353 0.000176017 1 
133818 1 475.581 23.0982 -12.9639 9.61174e-05 1 
133819 1 474.593 25.782 -13.0107 9.95173e-05 1 
133820 1 476.187 24.88 -10.8117 0.000337941 1 
133821 1 475.202 27.5611 -10.8568 0.000249227 1 
133822 1 477.259 26.7755 -12.6852 0.00014834 1 
133823 1 476.272 29.4614 -12.727 0.000105342 1 
133824 1 477.867 28.5559 -10.5328 0.000426896 1 
133825 1 476.883 31.2418 -10.5699 0.000248601 1 
133826 1 478.938 30.4587 -12.3977 0.000170023 1 
133827 1 477.951 33.1443 -12.4345 0.000116778 1 
133828 1 479.548 32.2419 -10.239 0.0004639 1 
133829 1 478.561 34.9227 -10.2736 0.000390526 1 
133830 1 480.616 34.143 -12.1001 0.000186781 1 
133831 1 479.625 36.8283 -12.1331 0.00013155 1 
133832 1 481.224 35.921 -9.93838 0.000961629 1 
133833 1 482.29 37.8266 -11.7903 0.000228449 1 
133834 1 467.168 0.145824 -12.5088 0.000157089 1 
133835 1 468.232 2.04651 -14.3647 7.81438e-05 1 
133836 1 469.831 1.14126 -12.1665 0.000132936 1 
133837 1 468.834 3.82912 -12.1988 0.000148447 1 
133838 1 470.896 3.03956 -14.023 7.64344e-05 1 
133839 1 469.9 5.72465 -14.058 8.28126e-05 1 
133840 1 471.498 4.82126 -11.8557 0.000124702 1 
133841 1 470.499 7.50641 -11.8898 0.000194022 1 
133842 1 472.563 6.71468 -13.718 9.59479e-05 1 
133843 1 471.566 9.39757 -13.7573 6.20459e-05 1 
133844 1 473.163 8.49609 -11.5512 0.000251186 1 
133845 1 472.166 11.1789 -11.5915 0.000127723 1 
133846 1 474.228 10.3857 -13.4236 6.19675e-05 1 
133847 1 473.231 13.0673 -13.4683 7.37593e-05 1 