ITEM: TIMESTEP
0
ITEM: NUMBER OF ATOMS
4446
ITEM: BOX BOUNDS xy xz yz pp pp ss
-53.743856792 39.370499743 -53.743856792
0 63.250674756 0
-107.2075168490457 105.0433825778132 0
ITEM: ATOMS id type x y z c_csym c_cna 
2 1 -35.3118 62.5989 -1.43568 6.93564 5 
3 1 -38.9723 62.5468 -6.95891 0.0265025 1 
4 1 -37.6946 62.8463 -4.39355 4.80429 5 
6 1 -38.9484 56.0729 -3.09633 1.56598 5 
7 1 -38.5994 59.0589 -1.4717 9.14285 5 
8 1 -37.1748 57.9967 -4.15694 0.547993 1 
9 1 -35.7482 58.3548 -1.76796 11.8355 5 
10 1 -36.6834 60.5991 -3.02178 3.97425 5 
11 1 -33.8678 60.2316 -2.55081 7.48522 5 
12 1 -32.4975 62.8919 -1.75872 7.47721 5 
13 1 -38.3582 57.6472 -6.72826 0.0175878 1 
14 1 -39.2854 59.9498 -8.1257 0.00459508 1 
15 1 -38.0411 60.2554 -5.56021 0.0283877 1 
16 1 -36.4767 59.4839 -7.863 0.00558137 1 
17 1 -35.2131 59.8002 -5.31711 0.139328 1 
18 1 -36.1585 62.0722 -6.72229 0.015532 1 
19 1 -34.8146 62.3423 -4.1948 2.61188 5 
20 1 -33.3325 61.5679 -6.50139 0.0700618 1 
21 1 -31.9799 61.855 -4.08177 10.455 5 
22 1 -38.9713 58.9046 -12.988 9.56511e-05 1 
23 1 -37.7236 59.1914 -10.4221 0.000648524 1 
24 1 -38.6614 61.5039 -11.8328 0.000311744 1 
25 1 -37.4169 61.7908 -9.26907 0.00260346 1 
26 1 -35.8523 61.0365 -11.5579 0.000665261 1 
27 1 -34.6006 61.3105 -9.01359 0.00523722 1 
28 1 -32.7263 63.1638 -10.1451 0.00343038 1 
30 1 -37.1004 60.7552 -14.1155 7.76015e-05 1 
33 1 -33.9792 62.8879 -12.6863 0.000513124 1 
38 1 -38.2076 51.1901 -2.72299 4.0965 5 
39 1 -37.3899 53.536 -1.22504 10.2132 5 
40 1 -34.5308 53.7492 -1.55494 5.34188 5 
41 1 -39.1987 53.4854 -4.07003 0.760539 5 
42 1 -37.6961 52.7249 -6.44159 0.019792 1 
43 1 -36.3662 53.0437 -3.86067 1.00747 5 
44 1 -37.3959 55.3154 -5.34838 0.0820587 1 
45 1 -36.1251 55.6513 -2.9003 5.93326 5 
46 1 -34.5483 54.8749 -5.05654 4.66275 5 
47 1 -33.7482 56.3931 -1.79108 11.0469 5 
48 1 -34.316 57.5573 -4.07814 6.16239 5 
49 1 -31.5011 56.9011 -3.44903 8.51628 5 
50 1 -31.2094 59.5884 -2.42578 9.51039 5 
51 1 -28.2955 59.2434 -2.09485 7.22794 5 
54 1 -38.9582 52.4382 -9.03147 0.00286835 1 
55 1 -38.6483 55.0325 -7.88258 0.00547286 1 
56 1 -37.0926 54.2819 -10.1713 0.000687162 1 
57 1 -35.8297 54.566 -7.60717 0.012374 1 
58 1 -36.786 56.8792 -9.02085 0.00343517 1 
59 1 -35.5691 57.1734 -6.48306 0.0876765 1 
60 1 -33.9634 56.4113 -8.73537 0.00531602 1 
61 1 -32.6878 56.6921 -6.16462 0.113448 1 
62 1 -33.6511 58.9886 -7.58491 0.0197534 1 
63 1 -32.3859 59.2743 -4.9946 0.280351 1 
64 1 -30.8319 58.5314 -7.28438 0.0182818 1 
65 1 -29.5925 58.8433 -4.66145 0.0589044 1 
66 1 -30.4737 61.0951 -6.20484 0.172605 1 
67 1 -29.2559 61.4415 -3.47878 2.23407 5 
68 1 -27.7192 60.7013 -5.81164 0.0434494 1 
69 1 -26.4308 61.0445 -3.26273 0.80543 1 
70 1 -24.5711 62.8463 -4.39355 4.80429 5 
71 1 -22.1883 62.5989 -1.43568 6.93564 5 
72 1 -38.3458 53.9962 -12.7379 0.000114066 1 
73 1 -39.2839 56.3071 -14.1447 3.42336e-05 1 
74 1 -38.0337 56.5931 -11.5791 0.00023169 1 
75 1 -36.4726 55.8441 -13.8648 5.09963e-05 1 
76 1 -35.2196 56.1281 -11.3015 0.000240182 1 
77 1 -36.1605 58.4401 -12.7084 0.000133945 1 
78 1 -34.9085 58.7204 -10.148 0.00118582 1 
79 1 -33.3455 57.9742 -12.4295 0.000274742 1 
80 1 -32.0886 58.2529 -9.86608 0.00192178 1 
81 1 -33.0346 60.5667 -11.2847 0.00123272 1 
82 1 -31.7726 60.8347 -8.73923 0.00983257 1 
83 1 -30.215 60.1055 -10.9979 0.00145482 1 
84 1 -28.9518 60.3892 -8.43246 0.0155299 1 
85 1 -29.9007 62.7046 -9.85381 0.00450572 1 
86 1 -28.6468 62.9981 -7.28831 0.0287629 1 
87 1 -27.0922 62.2534 -9.54765 0.00327711 1 
88 1 -25.8488 62.5468 -6.95891 0.0265025 1 
94 1 -34.5985 57.6931 -14.9908 5.03058e-05 1 
96 1 -34.2875 60.2896 -13.8376 0.000185098 1 
98 1 -31.4717 59.8255 -13.5567 0.000234632 1 
99 1 -32.4136 62.1431 -14.9608 9.09958e-05 1 
100 1 -31.1602 62.4237 -12.4063 0.000594845 1 
101 1 -29.5991 61.6807 -14.6783 0.00010417 1 
102 1 -28.3452 61.9646 -12.1175 0.000641883 1 
143 1 -39.0023 45.9787 -5.1147 0.0233277 1 
144 1 -37.6954 46.2508 -2.54829 2.22274 5 
145 1 -38.6314 48.5737 -3.9167 0.19683 1 
146 1 -37.1185 48.869 -1.45069 9.7054 5 
147 1 -35.8044 48.0875 -3.72898 0.55207 1 
148 1 -34.1993 48.3428 -1.42761 12.6589 5 
149 1 -35.4159 50.9761 -2.14211 8.87976 5 
150 1 -32.6598 50.3484 -2.39593 11.1693 5 
151 1 -38.3565 47.5292 -8.81844 0.00349519 1 
152 1 -37.111 47.8242 -6.25609 0.0230065 1 
153 1 -38.0177 50.1378 -7.61085 0.0219486 1 
154 1 -36.7315 50.4326 -5.00815 0.21974 1 
155 1 -35.228 49.6584 -7.38625 0.015563 1 
156 1 -33.9978 49.9594 -4.8233 0.40488 1 
157 1 -34.8986 52.2574 -6.2218 0.0408766 1 
158 1 -33.5471 52.5619 -3.75199 6.52698 5 
159 1 -32.0654 51.7824 -5.9943 0.052553 1 
160 1 -30.7755 52.1576 -3.41074 4.35561 5 
161 1 -31.7349 54.4119 -4.80437 5.19067 5 
162 1 -31.7978 54.3088 -2.02565 10.4694 5 
163 1 -28.9331 53.9874 -4.50311 2.04992 5 
164 1 -27.7666 54.3896 -1.91764 5.39853 5 
165 1 -28.7178 56.5763 -3.26743 5.02192 5 
167 1 -25.8249 56.0729 -3.09633 1.56598 5 
169 1 -25.4759 59.0589 -1.4717 9.14285 5 
170 1 -22.6247 58.3548 -1.76796 11.8355 5 
171 1 -39.2784 49.8409 -10.2058 0.0029961 1 
172 1 -37.728 49.0862 -12.5019 0.000343256 1 
173 1 -36.4798 49.3741 -9.93747 0.00280279 1 
174 1 -37.41 51.686 -11.3343 0.000501199 1 
175 1 -36.1589 51.9737 -8.76878 0.00390842 1 
176 1 -34.6007 51.22 -11.0643 0.000620277 1 
177 1 -33.3454 51.5037 -8.51619 0.00372142 1 
178 1 -34.2807 53.8181 -9.90215 0.00117353 1 
179 1 -33.0158 54.1008 -7.35134 0.00671725 1 
180 1 -31.4597 53.355 -9.62414 0.00128993 1 
181 1 -30.1945 53.6512 -7.06338 0.00924787 1 
182 1 -31.1431 55.9524 -8.44942 0.00442035 1 
183 1 -29.8994 56.2659 -5.84603 0.0584053 1 
184 1 -28.3358 55.5026 -8.15384 0.0062257 1 
185 1 -27.0869 55.8081 -5.60318 0.0682624 1 
186 1 -28.0255 58.1097 -6.96621 0.0240911 1 
187 1 -26.7776 58.4142 -4.35392 0.320442 1 
188 1 -25.2347 57.6472 -6.72826 0.0175878 1 
189 1 -24.0513 57.9967 -4.15694 0.547993 1 
190 1 -24.9176 60.2554 -5.56021 0.0283877 1 
191 1 -23.5599 60.5991 -3.02178 3.97425 5 
192 1 -22.0896 59.8002 -5.31711 0.139328 1 
193 1 -20.7443 60.2316 -2.55081 7.48522 5 
194 1 -21.6911 62.3423 -4.1948 2.61188 5 
195 1 -19.374 62.8919 -1.75872 7.47721 5 
196 1 -18.8564 61.855 -4.08177 10.455 5 
198 1 -38.6616 51.3984 -13.9012 0.000102775 1 
200 1 -35.8516 50.9347 -13.6243 0.00010572 1 
202 1 -35.5352 53.5325 -12.4619 0.000165798 1 
203 1 -33.9744 52.7838 -14.7459 4.47483e-05 1 
204 1 -32.7202 53.0686 -12.1839 0.000228575 1 
205 1 -33.6589 55.3802 -13.5852 9.20434e-05 1 
206 1 -32.4033 55.6644 -11.0203 0.000501765 1 
207 1 -30.8443 54.9179 -13.3024 0.000116272 1 
208 1 -29.5873 55.2051 -10.7334 0.000674814 1 
209 1 -30.5294 57.5125 -12.1446 0.000391631 1 
210 1 -29.2735 57.7999 -9.56948 0.00330308 1 
211 1 -27.7188 57.0545 -11.8593 0.00023819 1 
212 1 -26.4727 57.3468 -9.28672 0.00255267 1 
213 1 -27.4047 59.6518 -10.7051 0.00113909 1 
214 1 -26.1619 59.9498 -8.1257 0.00459508 1 
215 1 -24.6001 59.1914 -10.4221 0.000648524 1 
216 1 -23.3532 59.4839 -7.863 0.00558137 1 
217 1 -24.2934 61.7908 -9.26907 0.00260346 1 
218 1 -23.035 62.0722 -6.72229 0.015532 1 
219 1 -21.4771 61.3105 -9.01359 0.00523722 1 
220 1 -20.209 61.5679 -6.50139 0.0700618 1 
231 1 -31.7845 57.2297 -14.7094 6.86101e-05 1 
233 1 -28.9715 56.7684 -14.4266 5.28829e-05 1 
235 1 -28.6579 59.3652 -13.2717 0.000191416 1 
237 1 -25.8478 58.9046 -12.988 9.56511e-05 1 
238 1 -26.7873 61.219 -14.3955 7.31078e-05 1 
239 1 -25.5379 61.5039 -11.8328 0.000311744 1 
240 1 -23.9769 60.7552 -14.1155 7.76015e-05 1 
241 1 -22.7288 61.0365 -11.5579 0.000665261 1 
242 1 -20.8557 62.8879 -12.6863 0.000513124 1 
243 1 -19.6028 63.1638 -10.1451 0.00343038 1 
358 1 2.22476 41.3083 -2.5291 6.17147 5 
359 1 -36.7685 43.955 -1.35066 11.4671 5 
360 1 0.956148 40.9858 -4.94614 0.161803 1 
361 1 0.0307071 43.3628 -6.31161 0.0236508 1 
362 1 1.17998 43.6623 -3.738 0.490655 1 
363 1 2.80353 42.8733 -6.07105 0.126067 1 
364 1 -35.3211 43.2622 -3.70179 6.37052 5 
365 1 -36.2085 45.5349 -4.8918 0.121305 1 
366 1 -34.906 45.7822 -2.21461 7.26998 5 
367 1 -33.3818 44.9963 -4.62464 0.17399 1 
368 1 -32.2056 45.2907 -2.14177 10.8551 5 
369 1 -32.9576 47.6108 -3.61711 3.00493 5 
370 1 -30.2634 47.1622 -3.06699 1.90789 5 
372 1 -29.9838 49.751 -2.23447 7.63075 5 
373 1 -27.0855 49.5058 -1.73663 5.13978 5 
375 1 0.378295 42.3142 -11.1539 0.000333575 1 
376 1 1.61249 42.5954 -8.59964 0.00548828 1 
377 1 0.689728 44.9199 -9.98767 0.000893428 1 
378 1 -37.4477 45.213 -7.43151 0.00706697 1 
379 1 -35.8724 44.45 -9.71403 0.000738726 1 
380 1 -34.6359 44.7176 -7.15671 0.0190036 1 
381 1 -35.5537 47.0507 -8.55512 0.0035611 1 
382 1 -34.2953 47.3235 -6.03718 0.0512253 1 
383 1 -32.7368 46.5773 -8.29426 0.00578121 1 
384 1 -31.4506 46.8497 -5.7722 0.110691 1 
385 1 -32.4236 49.1847 -7.12817 0.019964 1 
386 1 -31.1465 49.4665 -4.6587 0.184005 1 
387 1 -29.5777 48.7271 -6.85631 0.0188932 1 
388 1 -28.3057 49.0344 -4.30928 0.215274 1 
389 1 -29.2527 51.3468 -5.67335 0.0260593 1 
390 1 -28.0803 51.7234 -3.07502 0.455273 5 
391 1 -26.4305 50.9047 -5.29886 0.0712826 1 
392 1 -25.0841 51.1901 -2.72299 4.0965 5 
393 1 -26.0752 53.4854 -4.07003 0.760539 5 
394 1 -24.2664 53.536 -1.22504 10.2132 5 
395 1 -23.2427 53.0437 -3.86067 1.00747 5 
396 1 -21.4073 53.7492 -1.55494 5.34188 5 
397 1 -23.0016 55.6513 -2.9003 5.93326 5 
398 1 -20.6247 56.3931 -1.79108 11.0469 5 
399 1 1.01128 43.8832 -14.8334 2.33761e-05 1 
400 1 -37.1142 44.1681 -12.2726 0.000101311 1 
401 1 -38.0449 46.4846 -13.6691 6.4725e-05 1 
402 1 -36.7987 46.7701 -11.1082 0.000378364 1 
403 1 -35.2349 46.0196 -13.3925 7.3691e-05 1 
404 1 -33.9883 46.3017 -10.8375 0.000497057 1 
405 1 -34.9189 48.6204 -12.228 0.000251097 1 
406 1 -33.668 48.903 -9.67483 0.000799609 1 
407 1 -32.1045 48.1553 -11.9524 0.000157719 1 
408 1 -30.8506 48.4398 -9.39739 0.00127187 1 
409 1 -31.7828 50.7555 -10.7894 0.000593713 1 
410 1 -30.5171 51.0418 -8.23689 0.00454728 1 
411 1 -28.9634 50.2981 -10.4978 0.00158338 1 
412 1 -27.6943 50.5959 -7.91705 0.00978158 1 
413 1 -28.6371 52.9001 -9.31992 0.00635765 1 
414 1 -27.3656 53.1987 -6.71635 0.0514253 1 
415 1 -25.8347 52.4382 -9.03147 0.00286835 1 
416 1 -24.5726 52.7249 -6.44159 0.019792 1 
417 1 -25.5248 55.0325 -7.88258 0.00547286 1 
418 1 -24.2724 55.3154 -5.34838 0.0820587 1 
419 1 -22.7062 54.566 -7.60717 0.012374 1 
420 1 -21.4248 54.8749 -5.05654 4.66275 5 
421 1 -22.4456 57.1734 -6.48306 0.0876765 1 
422 1 -21.1925 57.5573 -4.07814 6.16239 5 
423 1 -19.5643 56.6921 -6.16462 0.113448 1 
424 1 -18.3776 56.9011 -3.44903 8.51628 5 
425 1 -19.2624 59.2743 -4.9946 0.280351 1 
426 1 -18.0859 59.5884 -2.42578 9.51039 5 
427 1 -16.469 58.8433 -4.66145 0.0589044 1 
428 1 -15.172 59.2434 -2.09485 7.22794 5 
429 1 -16.1324 61.4415 -3.47878 2.23407 5 
431 1 -13.3073 61.0445 -3.26273 0.80543 1 
433 1 -48.4353 62.5989 -1.43568 6.93564 5 
438 1 -36.1677 48.3355 -14.7883 4.7833e-05 1 
440 1 -33.3557 47.8713 -14.5104 3.98451e-05 1 
442 1 -33.0386 50.4706 -13.347 0.000110981 1 
444 1 -30.2233 50.0089 -13.0646 0.000216486 1 
445 1 -31.1603 52.3212 -14.464 0.000103577 1 
446 1 -29.9025 52.6078 -11.8971 0.000777061 1 
447 1 -28.3478 51.8601 -14.1814 0.00012264 1 
448 1 -27.0921 52.1485 -11.6111 0.000566073 1 
449 1 -28.0319 54.4575 -13.0187 9.20383e-05 1 
450 1 -26.7784 54.7464 -10.4475 0.000432966 1 
451 1 -25.2223 53.9962 -12.7379 0.000114066 1 
452 1 -23.9691 54.2819 -10.1713 0.000687162 1 
453 1 -24.9102 56.5931 -11.5791 0.00023169 1 
454 1 -23.6625 56.8792 -9.02085 0.00343517 1 
455 1 -22.0961 56.1281 -11.3015 0.000240182 1 
456 1 -20.8399 56.4113 -8.73537 0.00531602 1 
457 1 -21.785 58.7204 -10.148 0.00118582 1 
458 1 -20.5276 58.9886 -7.58491 0.0197534 1 
459 1 -18.9651 58.2529 -9.86608 0.00192178 1 
460 1 -17.7084 58.5314 -7.28438 0.0182818 1 
461 1 -18.6491 60.8347 -8.73923 0.00983257 1 
462 1 -17.3502 61.0951 -6.20484 0.172605 1 
463 1 -15.8283 60.3892 -8.43246 0.0155299 1 
464 1 -14.5957 60.7013 -5.81164 0.0434494 1 
465 1 -15.5233 62.9981 -7.28831 0.0287629 1 
466 1 -52.0958 62.5468 -6.95891 0.0265025 1 
467 1 -50.8181 62.8463 -4.39355 4.80429 5 
485 1 -26.1604 56.3071 -14.1447 3.42336e-05 1 
487 1 -23.3491 55.8441 -13.8648 5.09963e-05 1 
489 1 -23.037 58.4401 -12.7084 0.000133945 1 
490 1 -21.475 57.6931 -14.9908 5.03058e-05 1 
491 1 -20.222 57.9742 -12.4295 0.000274742 1 
492 1 -21.164 60.2896 -13.8376 0.000185098 1 
493 1 -19.9111 60.5667 -11.2847 0.00123272 1 
494 1 -18.3482 59.8255 -13.5567 0.000234632 1 
495 1 -17.0915 60.1055 -10.9979 0.00145482 1 
496 1 -18.0367 62.4237 -12.4063 0.000594845 1 
497 1 -16.7772 62.7046 -9.85381 0.00450572 1 
498 1 -15.2217 61.9646 -12.1175 0.000641883 1 
499 1 -13.9687 62.2534 -9.54765 0.00327711 1 
526 1 -19.2901 62.1431 -14.9608 9.09958e-05 1 
528 1 -16.4756 61.6807 -14.6783 0.00010417 1 
721 1 1.23647 34.5223 -1.10102 9.13054 5 
722 1 0.186146 36.9388 -2.29897 5.21406 5 
723 1 1.59499 36.0739 -4.57536 0.428565 1 
724 1 3.00226 36.5715 -1.8433 7.84943 5 
725 1 2.02664 38.7 -3.50761 0.994266 5 
726 1 3.8404 39.3586 -1.19622 5.41298 5 
727 1 4.87378 38.1963 -3.3686 5.46771 5 
728 1 -34.7187 41.9704 -1.51465 11.5582 5 
729 1 -32.7698 39.9388 -1.67638 9.35428 5 
731 1 0.372054 35.8352 -7.17935 0.0265469 1 
732 1 0.669113 38.4015 -6.00843 0.0714998 1 
733 1 2.23411 37.6757 -8.34754 0.00969241 1 
734 1 3.47697 37.9314 -5.818 0.0704103 1 
735 1 2.55793 40.2626 -7.1888 0.0242907 1 
736 1 3.84571 40.5592 -4.63654 2.00038 5 
737 1 5.36294 39.799 -6.95493 0.0111928 1 
738 1 -32.7258 40.0761 -4.42539 5.26301 5 
739 1 -33.6844 42.394 -5.77419 0.122275 1 
740 1 -32.4997 42.6039 -3.08192 8.15557 5 
741 1 -30.9149 41.9693 -5.50088 0.0970789 1 
742 1 -29.7345 42.3171 -2.99888 5.8474 5 
743 1 -30.5765 44.5773 -4.30806 0.0844071 1 
744 1 -29.3525 44.8974 -1.65979 6.48665 5 
745 1 -27.774 44.1279 -3.96081 0.226828 1 
746 1 -26.5268 44.5733 -1.15473 7.6873 5 
747 1 -27.4591 46.7372 -2.85901 0.36661 1 
749 1 -24.5719 46.2508 -2.54829 2.22274 5 
750 1 -23.995 48.869 -1.45069 9.7054 5 
751 1 -21.0758 48.3428 -1.42761 12.6589 5 
752 1 1.00453 37.3952 -10.9145 0.000703192 1 
753 1 0.0703187 39.7125 -12.3162 0.000130802 1 
754 1 1.31241 39.9923 -9.75346 0.0011038 1 
755 1 2.87815 39.2483 -12.0414 0.000284908 1 
756 1 4.11721 39.5285 -9.49013 0.0026484 1 
757 1 3.18695 41.8491 -10.879 0.000232655 1 
758 1 -34.9452 42.127 -8.32359 0.00530051 1 
759 1 -33.3706 41.3834 -10.6061 0.000478822 1 
760 1 -32.1288 41.6664 -8.05846 0.00519289 1 
761 1 -33.0597 43.9826 -9.4427 0.0010916 1 
762 1 -31.8141 44.2628 -6.88844 0.0121944 1 
763 1 -30.2411 43.522 -9.156 0.00221943 1 
764 1 -29.0031 43.8245 -6.5747 0.0196313 1 
765 1 -29.9135 46.121 -8.00397 0.0099603 1 
766 1 -28.6849 46.4261 -5.4009 0.0279215 1 
767 1 -27.1194 45.6785 -7.69416 0.00493554 1 
768 1 -25.8788 45.9787 -5.1147 0.0233277 1 
769 1 -26.7701 48.2844 -6.52584 0.0198075 1 
770 1 -25.5079 48.5737 -3.9167 0.19683 1 
771 1 -23.9875 47.8242 -6.25609 0.0230065 1 
772 1 -22.6809 48.0875 -3.72898 0.55207 1 
773 1 -23.608 50.4326 -5.00815 0.21974 1 
774 1 -22.2924 50.9761 -2.14211 8.87976 5 
775 1 -20.8743 49.9594 -4.8233 0.40488 1 
776 1 -19.5363 50.3484 -2.39593 11.1693 5 
777 1 -20.4236 52.5619 -3.75199 6.52698 5 
778 1 -17.652 52.1576 -3.41074 4.35561 5 
779 1 -18.6743 54.3088 -2.02565 10.4694 5 
780 1 -14.6431 54.3896 -1.91764 5.39853 5 
784 1 1.6349 38.9654 -14.599 4.38412e-05 1 
786 1 1.94476 41.5666 -13.4367 5.76749e-05 1 
788 1 -34.6142 41.1016 -13.1602 7.46537e-05 1 
789 1 -35.5484 43.4191 -14.5553 2.87567e-05 1 
790 1 -34.3031 43.702 -11.9975 0.000118852 1 
791 1 -32.7356 42.9548 -14.2766 2.59355e-05 1 
792 1 -31.4883 43.2378 -11.7178 0.000177403 1 
793 1 -32.4219 45.5549 -13.1148 7.1169e-05 1 
794 1 -31.1712 45.8373 -10.5591 0.000592091 1 
795 1 -29.6085 45.0931 -12.8332 0.000101075 1 
796 1 -28.359 45.3802 -10.2707 0.00109552 1 
797 1 -29.2897 47.6954 -11.6685 0.000328691 1 
798 1 -28.0315 47.9867 -9.10487 0.00334447 1 
799 1 -26.4807 47.236 -11.3847 0.000558494 1 
800 1 -25.233 47.5292 -8.81844 0.00349519 1 
801 1 -26.1549 49.8409 -10.2058 0.0029961 1 
802 1 -24.8942 50.1378 -7.61085 0.0219486 1 
803 1 -23.3563 49.3741 -9.93747 0.00280279 1 
804 1 -22.1045 49.6584 -7.38625 0.015563 1 
805 1 -23.0354 51.9737 -8.76878 0.00390842 1 
806 1 -21.7751 52.2574 -6.2218 0.0408766 1 
807 1 -20.2219 51.5037 -8.51619 0.00372142 1 
808 1 -18.9419 51.7824 -5.9943 0.052553 1 
809 1 -19.8923 54.1008 -7.35134 0.00671725 1 
810 1 -18.6114 54.4119 -4.80437 5.19067 5 
811 1 -17.071 53.6512 -7.06338 0.00924787 1 
812 1 -15.8096 53.9874 -4.50311 2.04992 5 
813 1 -16.7759 56.2659 -5.84603 0.0584053 1 
814 1 -15.5943 56.5763 -3.26743 5.02192 5 
815 1 -13.9634 55.8081 -5.60318 0.0682624 1 
816 1 -12.7014 56.0729 -3.09633 1.56598 5 
817 1 -13.6541 58.4142 -4.35392 0.320442 1 
818 1 -12.3524 59.0589 -1.4717 9.14285 5 
819 1 -10.9278 57.9967 -4.15694 0.547993 1 
820 1 -48.8717 58.3548 -1.76796 11.8355 5 
821 1 -49.8069 60.5991 -3.02178 3.97425 5 
822 1 -46.9913 60.2316 -2.55081 7.48522 5 
823 1 -45.621 62.8919 -1.75872 7.47721 5 
835 1 -30.5423 47.4087 -14.2301 5.19466e-05 1 
837 1 -27.7308 46.9475 -13.9485 8.56254e-05 1 
839 1 -27.4116 49.549 -12.7799 0.000418326 1 
841 1 -24.6045 49.0862 -12.5019 0.000343256 1 
842 1 -25.5381 51.3984 -13.9012 0.000102775 1 
843 1 -24.2865 51.686 -11.3343 0.000501199 1 
844 1 -22.7281 50.9347 -13.6243 0.00010572 1 
845 1 -21.4772 51.22 -11.0643 0.000620277 1 
846 1 -22.4117 53.5325 -12.4619 0.000165798 1 
847 1 -21.1572 53.8181 -9.90215 0.00117353 1 
848 1 -19.5967 53.0686 -12.1839 0.000228575 1 
849 1 -18.3362 53.355 -9.62414 0.00128993 1 
850 1 -19.2798 55.6644 -11.0203 0.000501765 1 
851 1 -18.0196 55.9524 -8.44942 0.00442035 1 
852 1 -16.4638 55.2051 -10.7334 0.000674814 1 
853 1 -15.2123 55.5026 -8.15384 0.0062257 1 
854 1 -16.15 57.7999 -9.56948 0.00330308 1 
855 1 -14.902 58.1097 -6.96621 0.0240911 1 
856 1 -13.3492 57.3468 -9.28672 0.00255267 1 
857 1 -12.1112 57.6472 -6.72826 0.0175878 1 
858 1 -13.0384 59.9498 -8.1257 0.00459508 1 
859 1 -51.1646 60.2554 -5.56021 0.0283877 1 
860 1 -49.6002 59.4839 -7.863 0.00558137 1 
861 1 -48.3366 59.8002 -5.31711 0.139328 1 
862 1 -49.282 62.0722 -6.72229 0.015532 1 
863 1 -47.9381 62.3423 -4.1948 2.61188 5 
864 1 -46.456 61.5679 -6.50139 0.0700618 1 
865 1 -45.1034 61.855 -4.08177 10.455 5 
888 1 -20.8509 52.7838 -14.7459 4.47483e-05 1 
890 1 -20.5354 55.3802 -13.5852 9.20434e-05 1 
892 1 -17.7208 54.9179 -13.3024 0.000116272 1 
893 1 -18.661 57.2297 -14.7094 6.86101e-05 1 
894 1 -17.4059 57.5125 -12.1446 0.000391631 1 
895 1 -15.848 56.7684 -14.4266 5.28829e-05 1 
896 1 -14.5953 57.0545 -11.8593 0.00023819 1 
897 1 -15.5344 59.3652 -13.2717 0.000191416 1 
898 1 -14.2812 59.6518 -10.7051 0.00113909 1 
899 1 -12.7243 58.9046 -12.988 9.56511e-05 1 
900 1 -11.4766 59.1914 -10.4221 0.000648524 1 
901 1 -51.7849 61.5039 -11.8328 0.000311744 1 
902 1 -50.5404 61.7908 -9.26907 0.00260346 1 
903 1 -48.9758 61.0365 -11.5579 0.000665261 1 
904 1 -47.7241 61.3105 -9.01359 0.00523722 1 
905 1 -45.8498 63.1638 -10.1451 0.00343038 1 
939 1 -13.6638 61.219 -14.3955 7.31078e-05 1 
941 1 -50.2239 60.7552 -14.1155 7.76015e-05 1 
944 1 -47.1027 62.8879 -12.6863 0.000513124 1 
1275 1 0.441104 29.4191 -3.26273 0.80543 1 
1277 1 0.574421 32.0786 -2.28809 5.9514 5 
1278 1 4.68365 30.9736 -1.43568 6.93564 5 
1280 1 1.0231 30.9215 -6.95891 0.0265025 1 
1281 1 2.30082 31.221 -4.39355 4.80429 5 
1282 1 1.27282 33.5321 -5.80346 0.256473 1 
1283 1 2.58807 33.7916 -3.36871 7.40455 5 
1284 1 4.14494 33.0219 -5.60946 0.0572453 1 
1285 1 5.54938 33.205 -3.17621 7.23096 5 
1286 1 4.39879 35.6353 -4.439 0.363092 1 
1287 1 5.78202 35.9312 -2.02249 12.0819 5 
1288 1 7.22064 35.2062 -4.27513 5.3591 5 
1289 1 -31.677 37.7954 -2.94173 7.86427 5 
1290 1 -29.0416 37.1192 -2.45963 7.86148 5 
1292 1 -29.3204 40.0259 -1.71873 8.46374 5 
1295 1 0.0748768 33.2333 -8.38613 0.00770035 1 
1296 1 1.63927 32.48 -10.6752 0.000795243 1 
1297 1 2.86884 32.7629 -8.11029 0.0143172 1 
1298 1 1.93475 35.0809 -9.5113 0.00369187 1 
1299 1 3.17136 35.3536 -6.96944 0.0157134 1 
1300 1 4.74769 34.6062 -9.26182 0.00386242 1 
1301 1 5.98226 34.8849 -6.7426 0.0342915 1 
1302 1 5.0524 37.206 -8.11387 0.00822938 1 
1303 1 6.32876 37.4763 -5.60902 0.101853 1 
1304 1 7.89231 36.7367 -7.82683 0.0112574 1 
1305 1 -30.23 37.0258 -5.23519 0.218003 1 
1306 1 -31.1892 39.3388 -6.7051 0.0533823 1 
1307 1 -29.9515 39.6322 -4.255 3.07913 5 
1308 1 -28.3328 38.8655 -6.3299 0.140871 1 
1309 1 -27.1754 39.1269 -3.59738 5.01422 5 
1310 1 -28.0859 41.504 -5.24407 0.178293 1 
1311 1 -26.9232 41.7062 -2.73714 2.40591 5 
1312 1 -25.2909 40.9858 -4.94614 0.161803 1 
1313 1 -24.0222 41.3083 -2.5291 6.17147 5 
1314 1 -25.067 43.6623 -3.738 0.490655 1 
1315 1 -23.645 43.955 -1.35066 11.4671 5 
1316 1 -22.1976 43.2622 -3.70179 6.37052 5 
1317 1 -21.7825 45.7822 -2.21461 7.26998 5 
1318 1 -19.0821 45.2907 -2.14177 10.8551 5 
1320 1 0.393744 32.1945 -13.2379 0.000130046 1 
1321 1 0.699263 34.7961 -12.0765 0.000416063 1 
1322 1 2.26377 34.0474 -14.3605 7.62026e-05 1 
1323 1 3.5071 34.3299 -11.8041 0.000696514 1 
1324 1 2.57092 36.648 -13.2013 0.000161373 1 
1325 1 3.81031 36.9292 -10.6469 0.00163069 1 
1326 1 5.38414 36.1823 -12.9258 0.000218447 1 
1327 1 6.63325 36.4611 -10.3764 0.00105663 1 
1328 1 5.69191 38.782 -11.768 0.000461365 1 
1329 1 -32.4315 39.06 -9.2252 0.00343776 1 
1330 1 -30.8583 38.318 -11.4845 0.00067736 1 
1331 1 -29.6012 38.5976 -8.92043 0.00890965 1 
1332 1 -30.5515 40.9193 -10.3232 0.000963606 1 
1333 1 -29.3131 41.2018 -7.76164 0.0128107 1 
1334 1 -27.7404 40.4576 -10.0347 0.000880568 1 
1335 1 -26.4983 40.7309 -7.47772 0.016112 1 
1336 1 -27.4378 43.0643 -8.8693 0.00242753 1 
1337 1 -26.2163 43.3628 -6.31161 0.0236508 1 
1338 1 -24.6345 42.5954 -8.59964 0.00548828 1 
1339 1 -23.4435 42.8733 -6.07105 0.126067 1 
1340 1 -24.3242 45.213 -7.43151 0.00706697 1 
1341 1 -23.085 45.5349 -4.8918 0.121305 1 
1342 1 -21.5124 44.7176 -7.15671 0.0190036 1 
1343 1 -20.2583 44.9963 -4.62464 0.17399 1 
1344 1 -21.1718 47.3235 -6.03718 0.0512253 1 
1345 1 -19.8341 47.6108 -3.61711 3.00493 5 
1346 1 -18.3271 46.8497 -5.7722 0.110691 1 
1347 1 -17.1399 47.1622 -3.06699 1.90789 5 
1348 1 -18.023 49.4665 -4.6587 0.184005 1 
1349 1 -16.8603 49.751 -2.23447 7.63075 5 
1350 1 -15.1822 49.0344 -4.30928 0.215274 1 
1351 1 -13.962 49.5058 -1.73663 5.13978 5 
1352 1 -14.9568 51.7234 -3.07502 0.455273 5 
1354 1 -11.9606 51.1901 -2.72299 4.0965 5 
1355 1 -11.1429 53.536 -1.22504 10.2132 5 
1356 1 -8.2838 53.7492 -1.55494 5.34188 5 
1363 1 4.44675 38.5009 -14.3217 6.3447e-05 1 
1365 1 -32.1091 38.0364 -14.0419 7.04103e-05 1 
1367 1 -31.7995 40.6371 -12.8807 0.00010203 1 
1369 1 -28.9859 40.1747 -12.5979 0.000120928 1 
1370 1 -29.9228 42.492 -13.9959 3.44023e-05 1 
1371 1 -28.6761 42.7768 -11.4346 0.000247491 1 
1372 1 -27.1119 42.0298 -13.7151 4.70144e-05 1 
1373 1 -25.8687 42.3142 -11.1539 0.000333575 1 
1374 1 -26.7988 44.632 -12.5512 0.000126749 1 
1375 1 -25.5573 44.9199 -9.98767 0.000893428 1 
1376 1 -23.9907 44.1681 -12.2726 0.000101311 1 
1377 1 -22.7489 44.45 -9.71403 0.000738726 1 
1378 1 -23.6752 46.7701 -11.1082 0.000378364 1 
1379 1 -22.4302 47.0507 -8.55512 0.0035611 1 
1380 1 -20.8648 46.3017 -10.8375 0.000497057 1 
1381 1 -19.6133 46.5773 -8.29426 0.00578121 1 
1382 1 -20.5445 48.903 -9.67483 0.000799609 1 
1383 1 -19.3001 49.1847 -7.12817 0.019964 1 
1384 1 -17.7271 48.4398 -9.39739 0.00127187 1 
1385 1 -16.4542 48.7271 -6.85631 0.0188932 1 
1386 1 -17.3936 51.0418 -8.23689 0.00454728 1 
1387 1 -16.1292 51.3468 -5.67335 0.0260593 1 
1388 1 -14.5708 50.5959 -7.91705 0.00978158 1 
1389 1 -13.307 50.9047 -5.29886 0.0712826 1 
1390 1 -14.2421 53.1987 -6.71635 0.0514253 1 
1391 1 -12.9517 53.4854 -4.07003 0.760539 5 
1392 1 -11.4491 52.7249 -6.44159 0.019792 1 
1393 1 -10.1192 53.0437 -3.86067 1.00747 5 
1394 1 -11.1489 55.3154 -5.34838 0.0820587 1 
1395 1 -9.8781 55.6513 -2.9003 5.93326 5 
1396 1 -8.30127 54.8749 -5.05654 4.66275 5 
1397 1 -46.8717 56.3931 -1.79108 11.0469 5 
1398 1 -47.4395 57.5573 -4.07814 6.16239 5 
1399 1 -44.6246 56.9011 -3.44903 8.51628 5 
1400 1 -44.3329 59.5884 -2.42578 9.51039 5 
1401 1 -41.419 59.2434 -2.09485 7.22794 5 
1420 1 -25.2357 43.8832 -14.8334 2.33761e-05 1 
1422 1 -24.9214 46.4846 -13.6691 6.4725e-05 1 
1424 1 -22.1114 46.0196 -13.3925 7.3691e-05 1 
1425 1 -23.0442 48.3355 -14.7883 4.7833e-05 1 
1426 1 -21.7954 48.6204 -12.228 0.000251097 1 
1427 1 -20.2322 47.8713 -14.5104 3.98451e-05 1 
1428 1 -18.981 48.1553 -11.9524 0.000157719 1 
1429 1 -19.9151 50.4706 -13.347 0.000110981 1 
1430 1 -18.6593 50.7555 -10.7894 0.000593713 1 
1431 1 -17.0998 50.0089 -13.0646 0.000216486 1 
1432 1 -15.8399 50.2981 -10.4978 0.00158338 1 
1433 1 -16.779 52.6078 -11.8971 0.000777061 1 
1434 1 -15.5136 52.9001 -9.31992 0.00635765 1 
1435 1 -13.9686 52.1485 -11.6111 0.000566073 1 
1436 1 -12.7112 52.4382 -9.03147 0.00286835 1 
1437 1 -13.6549 54.7464 -10.4475 0.000432966 1 
1438 1 -12.4013 55.0325 -7.88258 0.00547286 1 
1439 1 -10.8456 54.2819 -10.1713 0.000687162 1 
1440 1 -9.58272 54.566 -7.60717 0.012374 1 
1441 1 -10.539 56.8792 -9.02085 0.00343517 1 
1442 1 -9.32207 57.1734 -6.48306 0.0876765 1 
1443 1 -47.0869 56.4113 -8.73537 0.00531602 1 
1444 1 -45.8113 56.6921 -6.16462 0.113448 1 
1445 1 -46.7746 58.9886 -7.58491 0.0197534 1 
1446 1 -45.5094 59.2743 -4.9946 0.280351 1 
1447 1 -43.9554 58.5314 -7.28438 0.0182818 1 
1448 1 -42.716 58.8433 -4.66145 0.0589044 1 
1449 1 -43.5972 61.0951 -6.20484 0.172605 1 
1450 1 -42.3794 61.4415 -3.47878 2.23407 5 
1451 1 -40.8427 60.7013 -5.81164 0.0434494 1 
1452 1 -39.5543 61.0445 -3.26273 0.80543 1 
1480 1 -18.0368 52.3212 -14.464 0.000103577 1 
1482 1 -15.2243 51.8601 -14.1814 0.00012264 1 
1484 1 -14.9084 54.4575 -13.0187 9.20383e-05 1 
1486 1 -12.0988 53.9962 -12.7379 0.000114066 1 
1487 1 -13.0369 56.3071 -14.1447 3.42336e-05 1 
1488 1 -11.7867 56.5931 -11.5791 0.00023169 1 
1489 1 -10.2256 55.8441 -13.8648 5.09963e-05 1 
1490 1 -8.97265 56.1281 -11.3015 0.000240182 1 
1491 1 -49.284 58.4401 -12.7084 0.000133945 1 
1492 1 -48.032 58.7204 -10.148 0.00118582 1 
1493 1 -46.469 57.9742 -12.4295 0.000274742 1 
1494 1 -45.2121 58.2529 -9.86608 0.00192178 1 
1495 1 -46.1581 60.5667 -11.2847 0.00123272 1 
1496 1 -44.8961 60.8347 -8.73923 0.00983257 1 
1497 1 -43.3385 60.1055 -10.9979 0.00145482 1 
1498 1 -42.0753 60.3892 -8.43246 0.0155299 1 
1499 1 -43.0242 62.7046 -9.85381 0.00450572 1 
1500 1 -41.7703 62.9981 -7.28831 0.0287629 1 
1501 1 -40.2157 62.2534 -9.54765 0.00327711 1 
1540 1 -47.722 57.6931 -14.9908 5.03058e-05 1 
1542 1 -47.411 60.2896 -13.8376 0.000185098 1 
1544 1 -44.5952 59.8255 -13.5567 0.000234632 1 
1545 1 -45.5371 62.1431 -14.9608 9.09958e-05 1 
1546 1 -44.2837 62.4237 -12.4063 0.000594845 1 
1547 1 -42.7226 61.6807 -14.6783 0.00010417 1 
1548 1 -41.4687 61.9646 -12.1175 0.000641883 1 
2047 1 1.04698 24.4476 -3.09633 1.56598 5 
2048 1 0.0942911 26.7888 -4.35392 0.320442 1 
2049 1 1.39603 27.4336 -1.4717 9.14285 5 
2050 1 2.82066 26.3714 -4.15694 0.547993 1 
2051 1 4.24721 26.7295 -1.76796 11.8355 5 
2052 1 3.31205 28.9738 -3.02178 3.97425 5 
2053 1 6.12765 28.6063 -2.55081 7.48522 5 
2054 1 7.49791 31.2665 -1.75872 7.47721 5 
2056 1 0.399269 25.7215 -9.28672 0.00255267 1 
2057 1 1.63725 26.0219 -6.72826 0.0175878 1 
2058 1 0.710067 28.3245 -8.1257 0.00459508 1 
2059 1 1.95433 28.6301 -5.56021 0.0283877 1 
2060 1 3.51873 27.8586 -7.863 0.00558137 1 
2061 1 4.78228 28.1749 -5.31711 0.139328 1 
2062 1 3.8369 30.4469 -6.72229 0.015532 1 
2063 1 5.18084 30.7169 -4.1948 2.61188 5 
2064 1 6.66293 29.9425 -6.50139 0.0700618 1 
2065 1 8.01554 30.2296 -4.08177 10.455 5 
2066 1 6.99723 32.5563 -5.39887 2.66199 5 
2067 1 7.85614 33.999 -1.89914 11.4171 5 
2068 1 9.76916 32.0992 -5.09266 5.75797 5 
2069 1 10.3278 32.2529 -2.41699 11.3993 5 
2070 1 9.89597 34.6635 -3.84105 10.5423 5 
2072 1 -26.8503 34.3314 -3.21305 7.79593 5 
2073 1 -25.0105 34.5223 -1.10102 9.13054 5 
2074 1 -26.0609 36.9388 -2.29897 5.21406 5 
2075 1 -23.2447 36.5715 -1.8433 7.84943 5 
2076 1 -22.4066 39.3586 -1.19622 5.41298 5 
2077 1 1.02415 27.2792 -12.988 9.56511e-05 1 
2078 1 2.27181 27.5661 -10.4221 0.000648524 1 
2079 1 1.33406 29.8786 -11.8328 0.000311744 1 
2080 1 2.57856 30.1655 -9.26907 0.00260346 1 
2081 1 4.14311 29.4111 -11.5579 0.000665261 1 
2082 1 5.39486 29.6852 -9.01359 0.00523722 1 
2083 1 4.44631 32.0096 -10.407 0.00214305 1 
2084 1 5.70263 32.2807 -7.88038 0.00866696 1 
2085 1 7.2691 31.5384 -10.1451 0.00343038 1 
2086 1 8.53418 31.8058 -7.62523 0.0256618 1 
2087 1 7.57705 34.141 -8.98871 0.00371703 1 
2088 1 8.82884 34.4233 -6.44889 0.0619916 1 
2089 1 10.4033 33.6877 -8.67898 0.0109379 1 
2090 1 -27.7352 34.0033 -6.07074 0.283891 1 
2091 1 -28.6664 36.2857 -7.49268 0.0179046 1 
2092 1 -27.4552 36.5646 -4.83533 0.2616 1 
2093 1 -25.8749 35.8352 -7.17935 0.0265469 1 
2094 1 -24.652 36.0739 -4.57536 0.428565 1 
2095 1 -25.5779 38.4015 -6.00843 0.0714998 1 
2096 1 -24.2204 38.7 -3.50761 0.994266 5 
2097 1 -22.77 37.9314 -5.818 0.0704103 1 
2098 1 -21.3732 38.1963 -3.3686 5.46771 5 
2099 1 -22.4013 40.5592 -4.63654 2.00038 5 
2100 1 -21.5952 41.9704 -1.51465 11.5582 5 
2101 1 -19.6023 40.0761 -4.42539 5.26301 5 
2102 1 -19.6463 39.9388 -1.67638 9.35428 5 
2103 1 -19.3762 42.6039 -3.08192 8.15557 5 
2104 1 -16.611 42.3171 -2.99888 5.8474 5 
2106 1 -16.229 44.8974 -1.65979 6.48665 5 
2107 1 -13.4033 44.5733 -1.15473 7.6873 5 
2109 1 0.0845835 29.5936 -14.3955 7.31078e-05 1 
2111 1 2.89508 29.1299 -14.1155 7.76015e-05 1 
2113 1 3.20305 31.7295 -12.9605 0.000182955 1 
2115 1 6.01621 31.2625 -12.6863 0.000513124 1 
2116 1 5.07622 33.5822 -14.0838 0.000123674 1 
2117 1 6.32449 33.8623 -11.5329 0.000701308 1 
2118 1 7.89214 33.1179 -13.804 0.000103181 1 
2119 1 9.14606 33.4006 -11.247 0.000846014 1 
2120 1 8.20219 35.7183 -12.6445 0.000235549 1 
2121 1 -29.914 36.0009 -10.0823 0.00219346 1 
2122 1 -28.3546 35.2579 -12.3579 0.00040648 1 
2123 1 -27.1078 35.5447 -9.78314 0.00334849 1 
2124 1 -28.046 37.8572 -11.1956 0.000667242 1 
2125 1 -26.8019 38.1351 -8.61907 0.00555463 1 