ITEM: TIMESTEP
0
ITEM: NUMBER OF ATOMS
6336
ITEM: BOX BOUNDS xy xz yz pp pp ss
-0.895709884 82.405309295 -0.895709884
0 42.947397521 0
-106.676380079312 114.799667855547 0
ITEM: ATOMS id type x y z c_csym c_cna 
1 1 2.78002 0.302904 -1.26805 7.29872 5 
2 1 2.93308 3.9256 0.0388378 9.9244 5 
3 1 2.19057 8.22795 -0.173376 1.15566 5 
4 1 -0.80858 42.7393 -0.942901 7.1642 5 
5 1 0.865043 2.50517 -1.49087 13.0128 5 
6 1 0.679919 5.56459 -1.03377 10.5475 5 
7 1 0.240274 10.2813 -1.17707 6.12596 5 
8 1 12.0647 0.636025 -0.323795 7.54802 5 
9 1 8.33922 0.917833 -2.52038 1.89891 5 
10 1 9.8054 2.49922 -0.956194 4.02261 5 
11 1 7.08249 1.97978 -0.219363 5.17233 5 
12 1 8.15557 4.84919 -1.71012 5.6401 5 
13 1 9.69076 7.165 -0.668195 6.69848 2 
14 1 6.96418 6.77115 0.0549807 6.58914 2 
15 1 7.62354 8.97515 -1.59401 0.232557 1 
16 1 9.14094 11.1588 -0.483429 7.98797 5 
17 1 7.2132 13.031 -1.16974 6.0877 2 
18 1 6.78392 16.2956 -0.219363 5.17233 5 
19 1 6.66561 21.0869 0.0549807 6.58914 2 
20 1 5.52484 0.596552 -1.89483 3.59537 5 
21 1 4.95517 0.915611 -4.59899 0.0620395 1 
22 1 6.46291 2.9388 -3.15294 0.799298 1 
23 1 3.65822 2.65544 -2.47524 2.58102 5 
24 1 5.47571 4.44947 -0.967784 6.56086 5 
25 1 4.57061 4.86055 -4.00022 0.204346 1 
26 1 6.1196 6.80934 -2.69944 0.346638 1 
27 1 3.35066 6.37029 -1.97048 1.28296 5 
28 1 4.8787 8.60579 -0.890836 0.243163 1 
29 1 4.18855 8.77279 -3.62283 0.134577 1 
30 1 5.69254 10.9101 -2.45549 0.0979894 1 
31 1 2.96229 10.5537 -1.78012 0.154895 1 
32 1 4.43309 12.7104 -0.459199 6.65138 2 
33 1 3.78899 12.8718 -3.23637 0.0572644 1 
34 1 5.22627 14.9124 -1.89483 3.59537 5 
35 1 2.48145 14.6187 -1.26805 7.29872 5 
36 1 3.35965 16.9712 -2.47524 2.58102 5 
37 1 5.17714 18.7653 -0.967784 6.56086 5 
38 1 2.63451 18.2414 0.0388378 9.9244 5 
39 1 3.05209 20.6861 -1.97048 1.28296 5 
40 1 4.58013 22.9216 -0.890836 0.243163 1 
41 1 1.892 22.5438 -0.173376 1.15566 5 
42 1 2.66372 24.8695 -1.78012 0.154895 1 
43 1 4.13452 27.0262 -0.459199 6.65138 2 
44 1 2.18288 28.9345 -1.26805 7.29872 5 
45 1 2.33594 32.5572 0.0388378 9.9244 5 
46 1 1.59343 36.8595 -0.173376 1.15566 5 
47 1 2.17773 0.58141 -3.96952 0.449876 5 
48 1 1.60203 0.809134 -6.81924 0.0189712 1 
49 1 3.06521 2.8503 -5.38046 0.0363625 1 
50 1 0.291641 2.48296 -4.8237 0.450843 5 
51 1 1.74408 4.52124 -3.41658 1.87482 5 
52 1 1.18937 4.79914 -6.26877 0.0186747 1 
53 1 2.66386 6.80343 -4.90268 0.07967 1 
54 1 1.40257 8.38318 -2.91556 6.07681 5 
55 1 0.811221 8.76954 -5.85581 0.0783968 1 
56 1 2.31317 10.7637 -4.52546 0.112698 1 
57 1 1.05988 12.4854 -2.66587 0.239349 1 
58 1 0.439526 12.7894 -5.44943 0.0478347 1 
59 1 1.87916 14.8972 -3.96952 0.449876 5 
60 1 0.566473 16.821 -1.49087 13.0128 5 
61 1 -0.00692916 16.7988 -4.8237 0.450843 5 
62 1 1.44551 18.837 -3.41658 1.87482 5 
63 1 0.381349 19.8804 -1.03377 10.5475 5 
64 1 1.104 22.699 -2.91556 6.07681 5 
65 1 0.761311 26.8012 -2.66587 0.239349 1 
66 1 0.267903 31.1368 -1.49087 13.0128 5 
67 1 17.3672 1.76978 -1.3911 0.155237 1 
68 1 17.0411 5.82953 -0.847853 4.80745 5 
69 1 16.7735 9.56483 -0.125186 1.33064 5 
70 1 14.6884 1.39502 -0.677083 6.93558 5 
71 1 13.9832 1.66221 -3.46202 0.294256 1 
72 1 15.4442 3.7324 -2.13455 0.285696 1 
73 1 12.6885 3.3571 -1.16639 6.35952 5 
74 1 14.2626 5.74949 -0.0734044 9.17408 5 
75 1 13.5835 5.60425 -2.96043 0.676576 1 
76 1 15.1941 7.78707 -1.66957 2.33354 5 
77 1 12.4246 7.46958 -1.34681 6.56679 5 
78 1 13.1737 9.88049 -2.31544 6.4393 5 
79 1 14.7468 11.6612 -0.964928 1.66549 5 
80 1 11.8842 12.0711 -0.195006 9.52476 5 
81 1 12.9276 13.5489 -2.24096 2.91495 5 
82 1 14.3898 15.7108 -0.677083 6.93558 5 
83 1 11.7662 14.9518 -0.323795 7.54802 5 
84 1 12.39 17.6729 -1.16639 6.35952 5 
85 1 13.964 20.0653 -0.0734044 9.17408 5 
86 1 12.126 21.7854 -1.34681 6.56679 5 
87 1 11.5856 26.3869 -0.195006 9.52476 5 
88 1 11.4676 29.2676 -0.323795 7.54802 5 
89 1 11.2447 1.34771 -3.02207 0.94802 1 
90 1 10.5678 1.59573 -5.77944 0.0358257 1 
91 1 12.095 3.6067 -4.32101 0.181285 1 
92 1 9.27327 3.253 -3.79126 0.340576 1 
93 1 10.8358 5.21631 -2.41519 1.58625 5 
94 1 10.1812 5.54154 -5.2525 0.0179025 1 
95 1 11.6742 7.56956 -3.97893 0.425563 1 
96 1 8.89552 7.20019 -3.3725 0.196673 1 
97 1 10.4044 9.35338 -2.22615 1.76155 5 
98 1 9.76788 9.52811 -4.91407 0.105928 1 
99 1 11.296 11.6121 -3.55662 1.13132 5 
100 1 8.47756 11.2727 -3.11051 0.139296 1 
101 1 10.0433 13.3646 -1.85679 6.91992 5 
102 1 9.3751 13.6069 -4.47002 0.122717 1 
103 1 10.9461 15.6635 -3.02207 0.94802 1 
104 1 8.04065 15.2336 -2.52038 1.89891 5 
105 1 9.50683 16.815 -0.956194 4.02261 5 
106 1 8.9747 17.5688 -3.79126 0.340576 1 
107 1 10.5372 19.5321 -2.41519 1.58625 5 
108 1 7.857 19.165 -1.71012 5.6401 5 
109 1 9.39219 21.4808 -0.668195 6.69848 2 
110 1 8.59695 21.516 -3.3725 0.196673 1 
111 1 10.1058 23.6692 -2.22615 1.76155 5 
112 1 7.32497 23.2909 -1.59401 0.232557 1 
113 1 8.84237 25.4746 -0.483429 7.98797 5 
114 1 8.17899 25.5885 -3.11051 0.139296 1 
115 1 9.7447 27.6804 -1.85679 6.91992 5 
116 1 6.91463 27.3468 -1.16974 6.0877 2 
117 1 7.74208 29.5494 -2.52038 1.89891 5 
118 1 9.20826 31.1308 -0.956194 4.02261 5 
119 1 6.48535 30.6114 -0.219363 5.17233 5 
120 1 7.55843 33.4808 -1.71012 5.6401 5 
121 1 9.09362 35.7966 -0.668195 6.69848 2 
122 1 6.36704 35.4027 0.0549807 6.58914 2 
123 1 7.0264 37.6067 -1.59401 0.232557 1 
124 1 8.5438 39.7904 -0.483429 7.98797 5 
125 1 6.61606 41.6626 -1.16974 6.0877 2 
126 1 7.74921 1.25467 -5.21461 0.0475766 1 
127 1 7.1598 1.50852 -7.97367 0.00701459 1 
128 1 8.66514 3.53777 -6.60283 0.0123699 1 
129 1 5.85959 3.19758 -5.99188 0.0167083 1 
130 1 7.37862 5.19419 -4.63744 0.0612641 1 
131 1 6.76612 5.47233 -7.4603 0.00673816 1 
132 1 8.26662 7.48461 -6.16212 0.0141575 1 
133 1 5.46744 7.13504 -5.53779 0.0167534 1 
134 1 6.96975 9.15891 -4.29262 0.0614838 1 
135 1 6.36807 9.45726 -7.04317 0.00813028 1 
136 1 7.85872 11.5192 -5.76902 0.0304348 1 
137 1 5.06732 11.1456 -5.14936 0.0283159 1 
138 1 6.55616 13.2298 -3.87053 0.0424955 1 
139 1 5.95256 13.5088 -6.56957 0.0144992 1 
140 1 7.45064 15.5705 -5.21461 0.0475766 1 
141 1 4.6566 15.2314 -4.59899 0.0620395 1 
142 1 6.16434 17.2546 -3.15294 0.799298 1 
143 1 5.56102 17.5134 -5.99188 0.0167083 1 
144 1 7.08005 19.51 -4.63744 0.0612641 1 
145 1 4.27204 19.1764 -4.00022 0.204346 1 
146 1 5.82103 21.1251 -2.69944 0.346638 1 
147 1 5.16887 21.4508 -5.53779 0.0167534 1 
148 1 6.67118 23.4747 -4.29262 0.0614838 1 
149 1 3.88998 23.0886 -3.62283 0.134577 1 
150 1 5.39397 25.2259 -2.45549 0.0979894 1 
151 1 4.76875 25.4614 -5.14936 0.0283159 1 
152 1 6.25759 27.5456 -3.87053 0.0424955 1 
153 1 3.49042 27.1876 -3.23637 0.0572644 1 
154 1 4.9277 29.2282 -1.89483 3.59537 5 
155 1 4.35803 29.5472 -4.59899 0.0620395 1 
156 1 5.86577 31.5704 -3.15294 0.799298 1 
157 1 3.06108 31.287 -2.47524 2.58102 5 
158 1 4.87857 33.0811 -0.967784 6.56086 5 
159 1 3.97347 33.4922 -4.00022 0.204346 1 
160 1 5.52246 35.4409 -2.69944 0.346638 1 
161 1 2.75352 35.0019 -1.97048 1.28296 5 
162 1 4.28156 37.2374 -0.890836 0.243163 1 
163 1 3.59141 37.4044 -3.62283 0.134577 1 
164 1 5.0954 39.5417 -2.45549 0.0979894 1 
165 1 2.36515 39.1853 -1.78012 0.154895 1 
166 1 3.83595 41.342 -0.459199 6.65138 2 
167 1 3.19185 41.5034 -3.23637 0.0572644 1 
168 1 4.37107 1.16354 -7.38077 0.00811678 1 
169 1 3.78778 1.42486 -10.1799 0.00198117 1 
170 1 5.2726 3.45898 -8.81149 0.00383771 1 
171 1 2.49297 3.11738 -8.22408 0.00883885 1 
172 1 3.97354 5.13026 -6.84389 0.0140446 1 
173 1 3.39137 5.40898 -9.68188 0.0031917 1 
174 1 4.87773 7.42669 -8.34485 0.00420047 1 
175 1 2.09956 7.08367 -7.7506 0.00857926 1 
176 1 3.58683 9.10328 -6.43321 0.0130376 1 
177 1 2.99649 9.39944 -9.23049 0.00256433 1 
178 1 4.4779 11.4457 -7.89658 0.00489897 1 
179 1 1.71237 11.0919 -7.32787 0.0122881 1 
180 1 3.17834 13.1567 -5.95964 0.0321332 1 
181 1 2.59819 13.425 -8.75395 0.00289645 1 
182 1 4.0725 15.4793 -7.38077 0.00811678 1 
183 1 1.30346 15.1249 -6.81924 0.0189712 1 
184 1 2.76664 17.1661 -5.38046 0.0363625 1 
185 1 2.1944 17.4332 -8.22408 0.00883885 1 
186 1 3.67497 19.4461 -6.84389 0.0140446 1 
187 1 0.890803 19.1149 -6.26877 0.0186747 1 
188 1 2.36529 21.1192 -4.90268 0.07967 1 
189 1 1.80099 21.3995 -7.7506 0.00857926 1 
190 1 3.28826 23.4191 -6.43321 0.0130376 1 
191 1 0.512652 23.0853 -5.85581 0.0783968 1 
192 1 2.0146 25.0795 -4.52546 0.112698 1 
193 1 1.4138 25.4077 -7.32787 0.0122881 1 
194 1 2.87977 27.4725 -5.95964 0.0321332 1 
195 1 0.140956 27.1052 -5.44943 0.0478347 1 
196 1 1.58059 29.213 -3.96952 0.449876 5 
197 1 1.00489 29.4407 -6.81924 0.0189712 1 
198 1 2.46807 31.4819 -5.38046 0.0363625 1 
199 1 1.14694 33.1528 -3.41658 1.87482 5 
200 1 0.592233 33.4307 -6.26877 0.0186747 1 
201 1 2.06672 35.435 -4.90268 0.07967 1 
202 1 0.805428 37.0148 -2.91556 6.07681 5 
203 1 0.214082 37.4011 -5.85581 0.0783968 1 
204 1 1.71603 39.3953 -4.52546 0.112698 1 
205 1 0.462741 41.117 -2.66587 0.239349 1 
206 1 1.01141 1.08109 -9.62148 0.00330182 1 
207 1 0.416744 1.34908 -12.4215 0.000525766 1 
208 1 1.90596 3.38368 -11.0488 0.00173747 1 
209 1 0.613762 5.06702 -9.11769 0.00422805 1 
210 1 0.0203991 5.34326 -11.9352 0.000959433 1 
211 1 1.50976 7.37059 -10.5736 0.00191474 1 
212 1 0.219316 9.05588 -8.66978 0.00844912 1 
213 1 1.11237 11.3775 -10.117 0.00167246 1 
214 1 0.712836 15.3969 -9.62148 0.00330182 1 
215 1 0.315192 19.3828 -9.11769 0.00422805 1 
216 1 26.4285 3.09732 0.860623 5.16052 5 
217 1 24.757 0.517917 -1.86068 10.3321 5 
218 1 22.0163 0.145873 -1.22015 6.04567 5 
219 1 22.9098 2.38421 -2.63356 6.30487 5 
220 1 24.4753 4.0568 -1.06444 8.90473 5 
221 1 21.7015 4.00922 -0.726887 6.61285 5 
222 1 22.6376 6.26866 -2.04543 0.268531 1 
223 1 24.2163 8.2153 -0.808778 6.473 5 
224 1 21.5796 7.93361 -0.138363 6.24726 5 
225 1 22.1735 10.3681 -1.49077 1.19411 5 
226 1 23.5155 12.6237 -0.286444 6.47085 2 
227 1 21.7177 14.4617 -1.22015 6.04567 5 
228 1 21.4029 18.325 -0.726887 6.61285 5 
229 1 21.281 22.2494 -0.138363 6.24726 5 
230 1 21.408 0.328397 -3.93888 0.0489216 1 
231 1 17.7408 42.9355 -3.2776 0.0407256 1 
232 1 20.1142 2.0741 -2.085 0.165157 1 
233 1 19.5075 2.32278 -4.7647 0.0223728 1 
234 1 21.0263 4.37151 -3.45469 0.0915342 1 
235 1 18.2306 4.06103 -2.83229 0.0675581 1 
236 1 19.856 6.0347 -1.45556 1.39852 5 
237 1 19.1475 6.35325 -4.20793 0.030354 1 
238 1 20.7137 8.34417 -2.8616 0.0881347 1 
239 1 17.9532 8.06282 -2.22811 0.278251 1 
240 1 19.4715 10.0057 -0.824294 0.878044 1 
241 1 18.7775 10.3176 -3.68272 0.023572 1 
242 1 20.2728 12.3327 -2.39461 0.0656402 1 
243 1 17.5087 11.9519 -1.71206 0.181838 1 
244 1 18.9841 14.0626 -0.555914 0.278608 1 
245 1 18.3379 14.3039 -3.2776 0.0407256 1 
246 1 19.8157 16.3899 -2.085 0.165157 1 
247 1 17.0686 16.0856 -1.3911 0.155237 1 
248 1 17.932 18.3768 -2.83229 0.0675581 1 
249 1 19.5575 20.3505 -1.45556 1.39852 5 
250 1 16.7425 20.1453 -0.847853 4.80745 5 
251 1 17.6546 22.3786 -2.22811 0.278251 1 
252 1 19.173 24.3215 -0.824294 0.878044 1 
253 1 16.4749 23.8806 -0.125186 1.33064 5 
254 1 17.2102 26.2677 -1.71206 0.181838 1 
255 1 18.6855 28.3784 -0.555914 0.278608 1 
256 1 16.77 30.4014 -1.3911 0.155237 1 
257 1 16.444 34.4611 -0.847853 4.80745 5 
258 1 16.1763 38.1964 -0.125186 1.33064 5 
259 1 18.0217 0.274117 -6.04326 0.00553394 1 
260 1 14.3558 42.8943 -5.41765 0.0421369 1 
261 1 16.7324 1.98811 -4.108 0.0240423 1 
262 1 16.1349 2.25395 -6.88703 0.00302435 1 
263 1 17.6219 4.30926 -5.56427 0.00839632 1 
264 1 14.8535 3.95726 -4.93582 0.0132062 1 
265 1 16.3554 6.02111 -3.60232 0.0503086 1 
266 1 15.733 6.28143 -6.37078 0.0263375 1 
267 1 17.2413 8.30793 -5.01744 0.0265347 1 
268 1 14.4275 7.98877 -4.36738 0.328704 1 
269 1 15.99 10.0321 -3.05181 0.235899 1 
270 1 15.3627 10.2349 -5.89763 0.0345803 1 
271 1 16.8685 12.2774 -4.56017 0.02852 1 
272 1 14.1187 11.9163 -4.03413 0.381967 1 
273 1 15.6208 13.9493 -2.60399 0.220626 1 
274 1 14.9529 14.2627 -5.41765 0.0421369 1 
275 1 16.4338 16.3039 -4.108 0.0240423 1 
276 1 13.6846 15.978 -3.46202 0.294256 1 
277 1 15.1456 18.0482 -2.13455 0.285696 1 
278 1 14.555 18.2731 -4.93582 0.0132062 1 
279 1 16.0568 20.3369 -3.60232 0.0503086 1 
280 1 13.2849 19.9201 -2.96043 0.676576 1 
281 1 14.8956 22.1029 -1.66957 2.33354 5 
282 1 14.1289 22.3046 -4.36738 0.328704 1 
283 1 15.6915 24.3479 -3.05181 0.235899 1 
284 1 12.8752 24.1963 -2.31544 6.4393 5 
285 1 14.4482 25.977 -0.964928 1.66549 5 
286 1 13.8201 26.2321 -4.03413 0.381967 1 
287 1 15.3222 28.2651 -2.60399 0.220626 1 
288 1 12.6291 27.8647 -2.24096 2.91495 5 
289 1 14.0913 30.0266 -0.677083 6.93558 5 
290 1 13.386 30.2938 -3.46202 0.294256 1 
291 1 14.8471 32.364 -2.13455 0.285696 1 
292 1 12.0914 31.9887 -1.16639 6.35952 5 
293 1 13.6654 34.3811 -0.0734044 9.17408 5 
294 1 12.9863 34.2359 -2.96043 0.676576 1 
295 1 14.597 36.4187 -1.66957 2.33354 5 
296 1 11.8274 36.1012 -1.34681 6.56679 5 
297 1 12.5766 38.5121 -2.31544 6.4393 5 
298 1 14.1496 40.2928 -0.964928 1.66549 5 
299 1 11.287 40.7027 -0.195006 9.52476 5 
300 1 12.3305 42.1805 -2.24096 2.91495 5 
301 1 14.6469 0.21202 -8.229 0.00342974 1 
302 1 13.3649 1.9176 -6.30264 0.0150149 1 
303 1 12.7548 2.1836 -9.10045 0.0020452 1 
304 1 14.2529 4.22042 -7.74183 0.0027403 1 
305 1 11.4728 3.8753 -7.15964 0.015322 1 
306 1 12.9786 5.90013 -5.81302 0.0388951 1 
307 1 12.3615 6.17054 -8.62183 0.00401778 1 
308 1 13.8597 8.21049 -7.25437 0.0184343 1 
309 1 11.0708 7.84559 -6.74308 0.0245108 1 
310 1 12.5836 9.88878 -5.34607 0.184476 1 
311 1 11.9685 10.169 -8.1515 0.00649364 1 
312 1 13.4667 12.2111 -6.79873 0.00911364 1 
313 1 10.6769 11.8667 -6.29245 0.0141965 1 
314 1 12.1776 13.927 -4.92154 0.0563554 1 
315 1 11.5633 14.1923 -7.68553 0.00334771 1 
316 1 13.0664 16.2334 -6.30264 0.0150149 1 
317 1 10.2692 15.9115 -5.77944 0.0358257 1 
318 1 11.7964 17.9225 -4.32101 0.181285 1 
319 1 11.1743 18.1911 -7.15964 0.015322 1 
320 1 12.68 20.2159 -5.81302 0.0388951 1 
321 1 9.88265 19.8573 -5.2525 0.0179025 1 
322 1 11.3756 21.8854 -3.97893 0.425563 1 
323 1 10.7722 22.1614 -6.74308 0.0245108 1 
324 1 12.285 24.2046 -5.34607 0.184476 1 
325 1 9.46931 23.8439 -4.91407 0.105928 1 
326 1 10.9974 25.9279 -3.55662 1.13132 5 
327 1 10.3783 26.1825 -6.29245 0.0141965 1 
328 1 11.879 28.2428 -4.92154 0.0563554 1 
329 1 9.07653 27.9227 -4.47002 0.122717 1 
330 1 10.6476 29.9793 -3.02207 0.94802 1 
331 1 9.97067 30.2273 -5.77944 0.0358257 1 
332 1 11.4979 32.2383 -4.32101 0.181285 1 
333 1 8.67613 31.8846 -3.79126 0.340576 1 
334 1 10.2387 33.8479 -2.41519 1.58625 5 
335 1 9.58408 34.1731 -5.2525 0.0179025 1 
336 1 11.077 36.2012 -3.97893 0.425563 1 
337 1 8.29838 35.8318 -3.3725 0.196673 1 
338 1 9.80725 37.985 -2.22615 1.76155 5 
339 1 9.17074 38.1597 -4.91407 0.105928 1 
340 1 10.6988 40.2437 -3.55662 1.13132 5 
341 1 7.88042 39.9043 -3.11051 0.139296 1 
342 1 9.44613 41.9962 -1.85679 6.91992 5 
343 1 8.77796 42.2385 -4.47002 0.122717 1 
344 1 11.257 0.144369 -10.4629 0.000679045 1 
345 1 9.96204 1.84852 -8.54775 0.00519001 1 
346 1 9.36288 2.11001 -11.3299 0.000594884 1 
347 1 10.8619 4.14212 -9.9709 0.00172029 1 
348 1 8.06512 3.80027 -9.40232 0.00218448 1 
349 1 9.56679 5.81858 -8.05804 0.00455661 1 
350 1 8.96625 6.09941 -10.8499 0.000760959 1 
351 1 10.4642 8.1316 -9.51283 0.00305635 1 
352 1 7.66767 7.7772 -8.94094 0.00339766 1 
353 1 9.16556 9.81682 -7.63239 0.012947 1 
354 1 8.56576 10.1005 -10.3878 0.00182853 1 
355 1 10.0639 12.1442 -9.04485 0.00292883 1 
356 1 7.26251 11.7974 -8.48766 0.00579491 1 
357 1 8.75803 13.8563 -7.15731 0.0178104 1 
358 1 8.16411 14.1193 -9.90507 0.00246563 1 
359 1 9.66347 16.1643 -8.54775 0.00519001 1 
360 1 6.86123 15.8243 -7.97367 0.00701459 1 
361 1 8.36657 17.8536 -6.60283 0.0123699 1 
362 1 7.76655 18.1161 -9.40232 0.00218448 1 
363 1 9.26822 20.1344 -8.05804 0.00455661 1 
364 1 6.46755 19.7881 -7.4603 0.00673816 1 
365 1 7.96805 21.8004 -6.16212 0.0141575 1 
366 1 7.3691 22.093 -8.94094 0.00339766 1 
367 1 8.86699 24.1326 -7.63239 0.012947 1 
368 1 6.0695 23.7731 -7.04317 0.00813028 1 
369 1 7.56015 25.835 -5.76902 0.0304348 1 
370 1 6.96394 26.1132 -8.48766 0.00579491 1 
371 1 8.45946 28.1721 -7.15731 0.0178104 1 
372 1 5.65399 27.8246 -6.56957 0.0144992 1 
373 1 7.15207 29.8863 -5.21461 0.0475766 1 
374 1 6.56266 30.1401 -7.97367 0.00701459 1 
375 1 8.068 32.1694 -6.60283 0.0123699 1 
376 1 5.26245 31.8292 -5.99188 0.0167083 1 
377 1 6.78148 33.8258 -4.63744 0.0612641 1 
378 1 6.16898 34.1039 -7.4603 0.00673816 1 
379 1 7.66948 36.1162 -6.16212 0.0141575 1 
380 1 4.8703 35.7666 -5.53779 0.0167534 1 
381 1 6.37261 37.7905 -4.29262 0.0614838 1 
382 1 5.77093 38.0889 -7.04317 0.00813028 1 
383 1 7.26158 40.1508 -5.76902 0.0304348 1 
384 1 4.47018 39.7772 -5.14936 0.0283159 1 
385 1 5.95902 41.8614 -3.87053 0.0424955 1 
386 1 5.35542 42.1404 -6.56957 0.0144992 1 
387 1 7.86923 0.0713588 -12.6823 0.000300337 1 
388 1 6.57137 1.7679 -10.7573 0.00111655 1 
389 1 5.98033 2.03579 -13.5486 0.000158776 1 
390 1 7.47157 4.07002 -12.1964 0.000310626 1 
391 1 4.68553 3.7266 -11.6199 0.000733501 1 
392 1 6.17493 5.75306 -10.2692 0.0013471 1 
393 1 5.58306 6.03142 -13.0673 0.000223178 1 
394 1 7.07349 8.06327 -11.7239 0.000544965 1 
395 1 4.28873 7.71555 -11.1462 0.000835297 1 
396 1 5.77548 9.7495 -9.81127 0.00172329 1 
397 1 5.18441 10.0322 -12.5947 0.000255951 1 
398 1 6.67268 12.0732 -11.2505 0.000865754 1 
399 1 3.88997 11.7251 -10.6769 0.000724472 1 
400 1 5.37327 13.7746 -9.32845 0.00238306 1 
401 1 4.78469 14.0428 -12.1118 0.000423981 1 
402 1 6.2728 16.0837 -10.7573 0.00111655 1 
403 1 3.48921 15.7407 -10.1799 0.00198117 1 
404 1 4.97403 17.7748 -8.81149 0.00383771 1 
405 1 4.38696 18.0424 -11.6199 0.000733501 1 
406 1 5.87636 20.0689 -10.2692 0.0013471 1 
407 1 3.0928 19.7248 -9.68188 0.0031917 1 
408 1 4.57916 21.7425 -8.34485 0.00420047 1 
409 1 3.99016 22.0314 -11.1462 0.000835297 1 
410 1 5.47691 24.0653 -9.81127 0.00172329 1 
411 1 2.69792 23.7152 -9.23049 0.00256433 1 
412 1 4.17933 25.7615 -7.89658 0.00489897 1 
413 1 3.5914 26.0409 -10.6769 0.000724472 1 
414 1 5.0747 28.0904 -9.32845 0.00238306 1 
415 1 2.29962 27.7408 -8.75395 0.00289645 1 
416 1 3.77393 29.7951 -7.38077 0.00811678 1 
417 1 3.19064 30.0565 -10.1799 0.00198117 1 
418 1 4.67546 32.0906 -8.81149 0.00383771 1 
419 1 1.89583 31.749 -8.22408 0.00883885 1 
420 1 3.3764 33.7619 -6.84389 0.0140446 1 
421 1 2.79423 34.0406 -9.68188 0.0031917 1 
422 1 4.28059 36.0583 -8.34485 0.00420047 1 
423 1 1.50242 35.7153 -7.7506 0.00857926 1 
424 1 2.98969 37.7349 -6.43321 0.0130376 1 
425 1 2.39935 38.031 -9.23049 0.00256433 1 
426 1 3.88076 40.0773 -7.89658 0.00489897 1 
427 1 1.11523 39.7235 -7.32787 0.0122881 1 
428 1 2.5812 41.7883 -5.95964 0.0321332 1 
429 1 2.00105 42.0566 -8.75395 0.00289645 1 
430 1 3.59494 42.9459 -14.9027 7.3069e-05 1 
431 1 3.19755 1.69211 -12.9797 0.000365145 1 
433 1 4.09315 3.99902 -14.4194 0.00014254 1 
434 1 1.31143 3.65535 -13.855 0.000341984 1 
435 1 2.80081 5.68682 -12.4949 0.000660547 1 
437 1 3.69564 7.99655 -13.9424 0.000158895 1 
438 1 0.914175 7.65153 -13.3783 0.000410132 1 
439 1 2.4033 9.68513 -12.0261 0.000520407 1 
440 1 1.80784 9.9641 -14.8197 0.000109074 1 
441 1 3.29712 12.0018 -13.4658 0.000152501 1 
442 1 0.515714 11.6566 -12.9069 0.000297832 1 
443 1 2.00464 13.6975 -11.5462 0.000642592 1 
444 1 1.4098 13.9699 -14.34 0.00013759 1 
445 1 2.89898 16.0079 -12.9797 0.000365145 1 
446 1 0.118174 15.6649 -12.4215 0.000525766 1 
447 1 1.60739 17.6995 -11.0488 0.00173747 1 
448 1 1.01286 17.9711 -13.855 0.000341984 1 
449 1 2.50224 20.0026 -12.4949 0.000660547 1 
450 1 1.21119 21.6864 -10.5736 0.00191474 1 
451 1 0.615605 21.9673 -13.3783 0.000410132 1 
452 1 2.10473 24.0009 -12.0261 0.000520407 1 
453 1 0.813805 25.6933 -10.117 0.00167246 1 
454 1 0.217144 25.9724 -12.9069 0.000297832 1 
455 1 1.70607 28.0133 -11.5462 0.000642592 1 
456 1 0.414266 29.7127 -9.62148 0.00330182 1 
457 1 1.30882 32.0153 -11.0488 0.00173747 1 
458 1 0.0166222 33.6986 -9.11769 0.00422805 1 
459 1 0.91262 36.0022 -10.5736 0.00191474 1 
460 1 0.515235 40.0091 -10.117 0.00167246 1 
464 1 33.8163 0.941421 -0.433244 4.9276 5 
465 1 31.9499 3.16704 -0.92842 6.45671 5 
466 1 33.3748 5.64477 0.0782219 6.93412 2 
467 1 31.423 7.33076 -0.915667 6.19894 5 
468 1 31.1693 11.1725 -0.414265 8.36993 5 
469 1 30.3644 1.1713 -2.44486 0.975288 5 
470 1 27.5634 0.82437 -2.27671 7.24985 5 
471 1 29.2202 3.20077 -0.130548 9.08548 5 
472 1 28.5398 3.06351 -3.53999 0.644434 5 
473 1 30.0448 5.05214 -2.12804 1.10311 5 
474 1 27.228 4.55079 -1.61846 4.53678 5 
475 1 28.7085 6.73057 -0.422454 3.4116 5 
476 1 28.1196 7.00701 -3.12869 0.101295 1 
477 1 29.5415 9.18658 -1.81403 0.540836 5 
478 1 26.8474 8.75101 -1.29977 5.96913 5 
479 1 27.6548 11.1212 -2.55458 0.406984 1 
480 1 29.1498 13.0604 -1.08812 1.86185 5 
481 1 26.329 12.9554 -0.801696 6.39319 5 
482 1 27.2649 15.1402 -2.27671 7.24985 5 
483 1 28.9216 17.5166 -0.130548 9.08548 5 
484 1 26.1299 17.4131 0.860623 5.16052 5 
485 1 26.9294 18.8666 -1.61846 4.53678 5 
486 1 28.4099 21.0464 -0.422454 3.4116 5 
487 1 26.5488 23.0668 -1.29977 5.96913 5 
488 1 26.0305 27.2712 -0.801696 6.39319 5 
489 1 25.8314 31.7289 0.860623 5.16052 5 
490 1 27.0021 1.01968 -5.02122 0.0836918 1 
491 1 24.1977 0.676957 -4.54171 0.117747 1 
492 1 25.7285 2.73079 -3.15431 6.76721 5 
493 1 25.1141 3.00223 -5.88787 0.0107144 1 
494 1 26.6441 5.01304 -4.50893 0.0831955 1 
495 1 23.8348 4.6749 -3.98704 0.167971 1 
496 1 25.386 6.56407 -2.61671 0.245786 1 
497 1 24.7319 6.99161 -5.38376 0.026733 1 
498 1 26.2073 9.01887 -3.99379 0.069566 1 
499 1 23.462 8.66843 -3.47087 0.1324 1 
500 1 24.9148 10.7211 -1.938 4.72543 5 
501 1 24.3369 10.9839 -4.85436 0.0630919 1 
502 1 25.8 13.0328 -3.56448 0.11661 1 
503 1 23.0304 12.6795 -3.04371 0.155737 1 
504 1 24.4584 14.8337 -1.86068 10.3321 5 
505 1 23.8992 14.9928 -4.54171 0.117747 1 
506 1 25.4299 17.0466 -3.15431 6.76721 5 
507 1 22.6112 16.7 -2.63356 6.30487 5 
508 1 24.1767 18.3726 -1.06444 8.90473 5 
509 1 23.5362 18.9907 -3.98704 0.167971 1 
510 1 25.0875 20.8799 -2.61671 0.245786 1 
511 1 22.339 20.5845 -2.04543 0.268531 1 
512 1 23.9178 22.5311 -0.808778 6.473 5 
513 1 23.1635 22.9842 -3.47087 0.1324 1 
514 1 24.6162 25.0369 -1.938 4.72543 5 
515 1 21.8749 24.6839 -1.49077 1.19411 5 
516 1 23.2169 26.9395 -0.286444 6.47085 2 
517 1 22.7318 26.9953 -3.04371 0.155737 1 
518 1 24.1599 29.1495 -1.86068 10.3321 5 
519 1 21.4191 28.7775 -1.22015 6.04567 5 
520 1 22.3127 31.0158 -2.63356 6.30487 5 
521 1 23.8781 32.6884 -1.06444 8.90473 5 
522 1 21.1043 32.6408 -0.726887 6.61285 5 
523 1 22.0404 34.9003 -2.04543 0.268531 1 
524 1 23.6192 36.8469 -0.808778 6.473 5 
525 1 20.9825 36.5652 -0.138363 6.24726 5 
526 1 21.5763 38.9997 -1.49077 1.19411 5 
527 1 22.9183 41.2553 -0.286444 6.47085 2 
528 1 23.6039 0.958069 -7.24253 0.0127117 1 
529 1 20.8076 0.612273 -6.66214 0.00704714 1 
530 1 22.3072 2.66143 -5.34902 0.00852037 1 
531 1 21.7052 2.93707 -8.08679 0.00255876 1 
532 1 23.2149 4.97386 -6.74181 0.00354072 1 
533 1 20.4118 4.64454 -6.17458 0.0108739 1 
534 1 21.9413 6.66559 -4.81718 0.0296757 1 
535 1 21.3155 6.94464 -7.5847 0.0030367 1 
536 1 22.8261 8.96822 -6.2368 0.00579872 1 
537 1 20.0335 8.63337 -5.64404 0.00839463 1 
538 1 21.549 10.6433 -4.30538 0.0203336 1 
539 1 20.9192 10.9242 -7.09883 0.00383783 1 
540 1 22.4145 12.9414 -5.7976 0.0209425 1 
541 1 19.6296 12.6064 -5.18529 0.0102607 1 
542 1 21.1094 14.6442 -3.93888 0.0489216 1 
543 1 20.509 14.9281 -6.66214 0.00704714 1 
544 1 22.0086 16.9772 -5.34902 0.00852037 1 
545 1 19.2089 16.6386 -4.7647 0.0223728 1 
546 1 20.7277 18.6873 -3.45469 0.0915342 1 
547 1 20.1132 18.9603 -6.17458 0.0108739 1 
548 1 21.6427 20.9814 -4.81718 0.0296757 1 
549 1 18.8489 20.669 -4.20793 0.030354 1 
550 1 20.4152 22.66 -2.8616 0.0881347 1 
551 1 19.735 22.9492 -5.64404 0.00839463 1 
552 1 21.2504 24.9591 -4.30538 0.0203336 1 
553 1 18.4789 24.6334 -3.68272 0.023572 1 
554 1 19.9742 26.6485 -2.39461 0.0656402 1 
555 1 19.331 26.9222 -5.18529 0.0102607 1 
556 1 20.8108 28.96 -3.93888 0.0489216 1 
557 1 18.0393 28.6197 -3.2776 0.0407256 1 
558 1 19.5171 30.7057 -2.085 0.165157 1 
559 1 18.9103 30.9544 -4.7647 0.0223728 1 
560 1 20.4292 33.0031 -3.45469 0.0915342 1 
561 1 17.6334 32.6926 -2.83229 0.0675581 1 
562 1 19.2589 34.6663 -1.45556 1.39852 5 
563 1 18.5503 34.9848 -4.20793 0.030354 1 
564 1 20.1166 36.9758 -2.8616 0.0881347 1 
565 1 17.3561 36.6944 -2.22811 0.278251 1 
566 1 18.8744 38.6373 -0.824294 0.878044 1 
567 1 18.1803 38.9492 -3.68272 0.023572 1 
568 1 19.6756 40.9643 -2.39461 0.0656402 1 
569 1 16.9116 40.5835 -1.71206 0.181838 1 
570 1 18.387 42.6942 -0.555914 0.278608 1 
571 1 20.2085 0.893981 -9.41365 0.00150625 1 
572 1 17.4225 0.551632 -8.8192 0.00110704 1 
573 1 18.9114 2.59568 -7.49896 0.00355737 1 
574 1 18.3157 2.86758 -10.2634 0.000875757 1 
575 1 19.8101 4.90981 -8.92801 0.0021725 1 
576 1 17.0229 4.57105 -8.33018 0.00343344 1 
577 1 18.5201 6.61161 -6.9864 0.00514568 1 
578 1 17.9212 6.8722 -9.77425 0.000699862 1 
579 1 19.4186 8.90382 -8.43213 0.00119405 1 
580 1 16.6357 8.56203 -7.83504 0.00309215 1 
581 1 18.1346 10.5874 -6.49345 0.00469856 1 
582 1 17.5252 10.865 -9.28975 0.000827014 1 
583 1 19.017 12.8929 -7.96287 0.00212204 1 
584 1 16.2373 12.5549 -7.35773 0.00502967 1 
585 1 17.7231 14.5899 -6.04326 0.00553394 1 
586 1 17.1239 14.8674 -8.8192 0.00110704 1 
587 1 18.6129 16.9115 -7.49896 0.00355737 1 
588 1 15.8363 16.5697 -6.88703 0.00302435 1 
589 1 17.3233 18.6251 -5.56427 0.00839632 1 
590 1 16.7244 18.8868 -8.33018 0.00343344 1 
591 1 18.2215 20.9274 -6.9864 0.00514568 1 
592 1 15.4344 20.5972 -6.37078 0.0263375 1 
593 1 16.9427 22.6237 -5.01744 0.0265347 1 
594 1 16.3371 22.8778 -7.83504 0.00309215 1 
595 1 17.836 24.9032 -6.49345 0.00469856 1 
596 1 15.0641 24.5507 -5.89763 0.0345803 1 
597 1 16.5699 26.5932 -4.56017 0.02852 1 
598 1 15.9387 26.8707 -7.35773 0.00502967 1 
599 1 17.4245 28.9057 -6.04326 0.00553394 1 
600 1 14.6544 28.5785 -5.41765 0.0421369 1 
601 1 16.1352 30.6197 -4.108 0.0240423 1 
602 1 15.5377 30.8855 -6.88703 0.00302435 1 
603 1 17.0247 32.9409 -5.56427 0.00839632 1 
604 1 14.2564 32.5889 -4.93582 0.0132062 1 
605 1 15.7583 34.6527 -3.60232 0.0503086 1 
606 1 15.1358 34.913 -6.37078 0.0263375 1 
607 1 16.6441 36.9395 -5.01744 0.0265347 1 
608 1 13.8303 36.6204 -4.36738 0.328704 1 
609 1 15.3929 38.6637 -3.05181 0.235899 1 
610 1 14.7655 38.8665 -5.89763 0.0345803 1 
611 1 16.2713 40.909 -4.56017 0.02852 1 
612 1 13.5216 40.5479 -4.03413 0.381967 1 
613 1 15.0236 42.5809 -2.60399 0.220626 1 
614 1 16.8251 0.827471 -11.6019 0.000196961 1 
615 1 14.0429 0.484918 -11.0234 0.000512707 1 
616 1 15.5353 2.5234 -9.67555 0.00060478 1 
617 1 14.9362 2.79444 -12.4656 0.000108167 1 
618 1 16.4283 4.83323 -11.119 0.00032577 1 
619 1 13.6476 4.48698 -10.5415 0.000431372 1 
620 1 15.1411 6.52621 -9.18717 0.00213489 1 
621 1 14.5401 6.79579 -11.9837 0.000229763 1 
622 1 16.0328 8.83214 -10.6342 0.000407593 1 
623 1 13.2525 8.48377 -10.0609 0.00124031 1 
624 1 14.7477 10.5197 -8.70718 0.00178519 1 
625 1 14.1428 10.7956 -11.5038 0.00035393 1 
626 1 15.6344 12.8315 -10.1552 0.0006935 1 
627 1 12.8539 12.4881 -9.58812 0.00122981 1 
628 1 14.3483 14.5278 -8.229 0.00342974 1 
629 1 13.7443 14.8007 -11.0234 0.000512707 1 
630 1 15.2367 16.8392 -9.67555 0.00060478 1 
631 1 12.4562 16.4994 -9.10045 0.0020452 1 
632 1 13.9544 18.5362 -7.74183 0.0027403 1 
633 1 13.349 18.8028 -10.5415 0.000431372 1 
634 1 14.8425 20.842 -9.18717 0.00213489 1 
635 1 12.063 20.4863 -8.62183 0.00401778 1 
636 1 13.5611 22.5263 -7.25437 0.0184343 1 
637 1 12.9539 22.7996 -10.0609 0.00124031 1 
638 1 14.4491 24.8355 -8.70718 0.00178519 1 
639 1 11.67 24.4848 -8.1515 0.00649364 1 
640 1 13.1681 26.5269 -6.79873 0.00911364 1 
641 1 12.5553 26.8039 -9.58812 0.00122981 1 
642 1 14.0497 28.8436 -8.229 0.00342974 1 
643 1 11.2647 28.5081 -7.68553 0.00334771 1 
644 1 12.7678 30.5492 -6.30264 0.0150149 1 
645 1 12.1577 30.8152 -9.10045 0.0020452 1 
646 1 13.6558 32.852 -7.74183 0.0027403 1 
647 1 10.8757 32.5069 -7.15964 0.015322 1 
648 1 12.3814 34.5317 -5.81302 0.0388951 1 
649 1 11.7644 34.8021 -8.62183 0.00401778 1 
650 1 13.2625 36.8421 -7.25437 0.0184343 1 
651 1 10.4736 36.4772 -6.74308 0.0245108 1 
652 1 11.9864 38.5204 -5.34607 0.184476 1 
653 1 11.3714 38.8006 -8.1515 0.00649364 1 
654 1 12.8695 40.8427 -6.79873 0.00911364 1 
655 1 10.0798 40.4983 -6.29245 0.0141965 1 
656 1 11.5804 42.5586 -4.92154 0.0563554 1 
657 1 10.9661 42.8239 -7.68553 0.00334771 1 
658 1 13.4437 0.757707 -13.8143 7.65886e-05 1 
659 1 10.6578 0.414588 -13.248 8.94802e-05 1 
660 1 12.1522 2.4514 -11.8941 0.000244132 1 
661 1 11.5536 2.72324 -14.6849 2.91491e-05 1 
662 1 13.047 4.75899 -13.3343 7.51382e-05 1 
663 1 10.2609 4.41404 -12.7657 0.000158567 1 
664 1 11.7564 6.44748 -11.4163 0.000478932 1 
665 1 11.1564 6.72309 -14.2064 5.3575e-05 1 
666 1 12.6498 8.75923 -12.8551 0.000175441 1 
667 1 9.86285 8.41179 -12.2932 0.000342653 1 
668 1 11.3588 10.4489 -10.9417 0.000705461 1 
669 1 10.758 10.7254 -13.7284 7.29119e-05 1 
670 1 12.2511 12.763 -12.3766 0.000185017 1 
671 1 9.46305 12.419 -11.8164 0.000452568 1 
672 1 10.9585 14.4602 -10.4629 0.000679045 1 
673 1 10.3592 14.7304 -13.248 8.94802e-05 1 
674 1 11.8536 16.7672 -11.8941 0.000244132 1 
675 1 9.06431 16.4258 -11.3299 0.000594884 1 
676 1 10.5633 18.4579 -9.9709 0.00172029 1 
677 1 9.96235 18.7298 -12.7657 0.000158567 1 
678 1 11.4579 20.7633 -11.4163 0.000478932 1 
679 1 8.66768 20.4152 -10.8499 0.000760959 1 
680 1 10.1656 22.4474 -9.51283 0.00305635 1 
681 1 9.56428 22.7276 -12.2932 0.000342653 1 
682 1 11.0603 24.7647 -10.9417 0.000705461 1 
683 1 8.26719 24.4163 -10.3878 0.00182853 1 
684 1 9.76533 26.46 -9.04485 0.00292883 1 
685 1 9.16448 26.7348 -11.8164 0.000452568 1 
686 1 10.6599 28.776 -10.4629 0.000679045 1 
687 1 7.86554 28.4351 -9.90507 0.00246563 1 
688 1 9.3649 30.4801 -8.54775 0.00519001 1 
689 1 8.76574 30.7416 -11.3299 0.000594884 1 
690 1 10.2648 32.7737 -9.9709 0.00172029 1 
691 1 7.46798 32.4319 -9.40232 0.00218448 1 