ITEM: TIMESTEP
0
ITEM: NUMBER OF ATOMS
12104
ITEM: BOX BOUNDS xy xz yz pp pp ss
-194.010839546 185.151897101 -194.010839546
0 36.498412825 0
-107.4312269075149 102.5055383730649 0
ITEM: ATOMS id type x y z c_csym c_cna 
10 1 -0.485827 26.9761 -13.7691 0.00015697 1 
12 1 -1.10482 30.8641 -12.8555 0.000280618 1 
13 1 -1.23691 33.3089 -14.3503 9.5953e-05 1 
14 1 -1.72409 34.7647 -11.9398 0.000253072 1 
15 1 -0.223684 22.1151 -10.7784 0.000732946 1 
16 1 -0.355843 24.5446 -12.2693 0.000310259 1 
17 1 -0.851647 25.9961 -9.84167 0.00123026 1 
18 1 -0.976064 28.4244 -11.352 0.000632854 1 
19 1 -1.47053 29.8672 -8.94378 0.00276547 1 
20 1 -1.5927 32.3136 -10.4492 0.00068394 1 
21 1 -2.07816 33.7626 -8.05202 0.00221604 1 
22 1 -187.362 36.2244 -9.53148 0.000792907 1 
23 1 -185.541 35.983 -7.3475 0.00235761 1 
24 1 -0.0854174 19.6773 -9.30357 0.0017688 1 
25 1 -0.571239 21.1513 -6.8674 0.0110408 1 
26 1 -0.720961 23.5766 -8.3419 0.00256274 1 
27 1 -1.23301 25.0248 -5.88528 0.0152096 1 
28 1 -1.36063 27.4381 -7.41346 0.00985157 1 
29 1 -1.92418 28.8987 -5.03787 0.4871 1 
30 1 -1.95197 31.3052 -6.55146 0.0339808 1 
31 1 -0.200343 31.0827 -4.26499 7.13033 5 
32 1 -0.241847 33.5143 -5.86652 0.0556028 1 
33 1 -2.42535 32.7177 -4.23406 0.698767 1 
34 1 -2.55176 35.214 -5.67042 0.0136211 1 
35 1 -185.824 34.965 -3.54644 0.194468 1 
36 1 -0.301252 16.2477 -3.99926 0.18947 1 
37 1 -0.420013 18.6932 -5.4507 0.0115918 1 
38 1 -0.892415 20.1636 -3.0464 0.171473 1 
39 1 -1.05989 22.6288 -4.39338 0.0877299 1 
41 1 -1.79705 26.4454 -3.47985 0.745385 1 
47 1 -0.251201 13.7585 -2.65807 9.20807 5 
212 1 -2.16941 24.7715 -14.481 9.09692e-05 1 
214 1 -4.47363 26.4535 -14.2724 0.000116323 1 
216 1 -2.78917 28.6585 -13.5641 0.000179606 1 
218 1 -5.09274 30.3444 -13.3591 0.000197629 1 
219 1 -5.22472 32.7898 -14.8497 6.78581e-05 1 
220 1 -3.40776 32.5535 -12.6507 0.000228582 1 
221 1 -3.54072 35.0004 -14.1374 8.587e-05 1 
222 1 -5.71114 34.2463 -12.4393 0.000195229 1 
226 1 -1.72875 5.99965 -14.9804 6.38932e-05 1 
228 1 -0.0441602 8.20434 -14.2724 0.000116323 1 
230 1 -2.34859 9.88801 -14.0652 0.00015783 1 
232 1 -0.663265 12.0952 -13.3591 0.000197629 1 
233 1 -0.795245 14.5406 -14.8497 6.78581e-05 1 
234 1 -2.96687 13.7849 -13.15 0.000160665 1 
235 1 -3.09978 16.2312 -14.6348 7.36986e-05 1 
236 1 -1.28167 15.9971 -12.4393 0.000195229 1 
237 1 -1.41554 18.4425 -13.9205 0.00014466 1 
238 1 -3.58601 17.6903 -12.2211 0.000251738 1 
239 1 -3.72031 20.1309 -13.7019 0.000205918 1 
240 1 -1.9031 19.9043 -11.5004 0.000633666 1 
241 1 -2.03756 22.339 -12.9855 0.000252602 1 
242 1 -4.20881 21.5907 -11.2777 0.000886801 1 
243 1 -4.34212 24.0196 -12.7726 0.000233508 1 
244 1 -2.52979 23.7958 -10.5573 0.000985107 1 
245 1 -2.65951 26.2222 -12.0621 0.000427165 1 
246 1 -4.83427 25.4686 -10.3503 0.00113164 1 
247 1 -4.96334 27.9017 -11.8599 0.000409502 1 
248 1 -3.15446 27.6655 -9.64732 0.00296892 1 
249 1 -3.27891 30.1067 -11.155 0.000418103 1 
250 1 -5.45715 29.3471 -9.45427 0.0018354 1 
251 1 -5.57951 31.7956 -10.954 0.00058796 1 
252 1 -3.76871 31.5539 -8.75287 0.00109752 1 
253 1 -3.89389 34.0082 -10.2456 0.000692527 1 
254 1 -6.06393 33.2479 -8.55576 0.00268831 1 
255 1 -6.19612 35.7068 -10.0299 0.000631784 1 
256 1 -4.37597 35.4678 -7.84553 0.00276721 1 
257 1 -1.46236 1.13105 -11.9989 0.000366521 1 
258 1 -1.59619 3.56565 -13.485 0.000174359 1 
259 1 -2.08551 5.01982 -11.0619 0.00068194 1 
260 1 -2.21756 7.44952 -12.5646 0.000240128 1 
261 1 -0.404799 7.2194 -10.3503 0.00113164 1 
262 1 -0.533873 9.65245 -11.8599 0.000409502 1 
263 1 -2.70852 8.89508 -10.1514 0.00103014 1 
264 1 -2.83632 11.3367 -11.6585 0.000573005 1 
265 1 -1.02767 11.0979 -9.45427 0.0018354 1 
266 1 -1.15004 13.5464 -10.954 0.00058796 1 
267 1 -3.31957 12.7833 -9.25774 0.00248095 1 
268 1 -3.45148 15.2405 -10.7444 0.000467838 1 
269 1 -1.63446 14.9987 -8.55576 0.00268831 1 
270 1 -1.76665 17.4576 -10.0299 0.000631784 1 
271 1 -3.93195 16.7018 -8.34121 0.00126316 1 
272 1 -4.072 19.1537 -9.80425 0.000844437 1 
273 1 -2.24942 18.9253 -7.61912 0.00224687 1 
274 1 -2.39251 21.3703 -9.07034 0.00294761 1 
275 1 -4.56027 20.6187 -7.37849 0.00278574 1 
276 1 -4.70169 23.0506 -8.84181 0.00381904 1 
277 1 -2.88924 22.8359 -6.61863 0.0162126 1 
278 1 -3.03094 25.2478 -8.11765 0.00413489 1 
279 1 -5.20874 24.5083 -6.38789 0.0247856 1 
280 1 -5.33648 26.9105 -7.92967 0.00681013 1 
281 1 -3.55966 26.6914 -5.67847 0.0943037 1 
282 1 -3.6652 29.1045 -7.2553 0.0274514 1 
283 1 -5.81275 28.3487 -5.48872 0.120103 1 
284 1 -5.94648 30.787 -7.04656 0.00813583 1 
285 1 -4.14355 30.5343 -4.8586 0.495766 1 
286 1 -4.26425 32.9997 -6.36482 0.0146442 1 
287 1 -6.45822 32.2587 -4.66281 0.174698 1 
288 1 -6.54073 34.7123 -6.16568 0.0128047 1 
289 1 -4.73072 34.4969 -3.99926 0.18947 1 
290 1 -192.133 36.1705 -3.775 0.0907287 1 
291 1 183.343 0.15269 -8.11 0.0013727 1 
292 1 -1.95065 2.59235 -9.57489 0.00129792 1 
293 1 -0.130802 2.36954 -7.37849 0.00278574 1 
294 1 -0.272222 4.80143 -8.84181 0.00381904 1 
295 1 -2.44613 4.05354 -7.13981 0.00579985 1 
296 1 -2.57936 6.47122 -8.63241 0.00340027 1 
297 1 -0.779265 6.25913 -6.38789 0.0247856 1 
298 1 -0.90701 8.66134 -7.92967 0.00681013 1 
299 1 -3.07743 7.92923 -6.18722 0.0406602 1 
300 1 -3.19406 10.3306 -7.73738 0.0102235 1 
301 1 -1.38328 10.0995 -5.48872 0.120103 1 
302 1 -1.51701 12.5377 -7.04656 0.00813583 1 
303 1 -3.69696 11.7463 -5.36072 0.056679 1 
304 1 -3.79399 14.2346 -6.86807 0.0132965 1 
305 1 -2.02875 14.0095 -4.66281 0.174698 1 
306 1 -2.11126 16.4631 -6.16568 0.0128047 1 
307 1 -4.22755 15.6898 -4.4593 0.109003 1 
308 1 -4.40512 18.1659 -5.93379 0.00532571 1 
309 1 -2.55153 17.9213 -3.775 0.0907287 1 
310 1 -2.72761 20.3933 -5.19905 0.012858 1 
311 1 -4.88121 19.625 -3.5368 0.0496748 1 
312 1 -5.06085 22.0737 -4.94186 0.0346107 1 
313 1 -3.21051 21.8001 -2.74993 0.317309 1 
314 1 -3.42138 24.2731 -4.1309 0.199163 1 
315 1 -5.67464 23.5815 -2.58368 1.20323 1 
316 1 -5.69704 26.036 -3.89357 0.249647 1 
318 1 -3.95404 28.3039 -3.11214 1.40419 5 
320 1 -6.41169 29.769 -3.14183 5.80729 5 
322 1 -4.68067 32.0077 -2.65807 9.20807 5 
325 1 -2.30231 1.62021 -5.68716 0.00791873 1 
326 1 -0.45174 1.37582 -3.5368 0.0496748 1 
327 1 -0.631382 3.82446 -4.94186 0.0346107 1 
328 1 -2.80425 3.07045 -3.25801 0.255315 1 
329 1 -2.96917 5.53391 -4.70386 0.0880371 1 
330 1 -1.24517 5.3323 -2.58368 1.20323 1 
331 1 -1.26756 7.78676 -3.89357 0.249647 1 
333 1 -3.63739 9.33721 -3.74495 4.86403 5 
335 1 -1.98222 11.5198 -3.14183 5.80729 5 
336 1 -4.11998 13.1709 -2.99274 4.88665 5 
43012 1 -8.83459 36.4151 -5.93379 0.00532571 1 
43011 1 0.357467 0.904532 -9.80425 0.000844437 1 
796 1 -6.15822 24.2489 -14.9804 6.38932e-05 1 
798 1 -8.46346 25.9318 -14.7699 9.04421e-05 1 
800 1 -6.77806 28.1372 -14.0652 0.00015783 1 
802 1 -9.08245 29.8241 -13.8562 0.000154252 1 
804 1 -7.39634 32.0341 -13.15 0.000160665 1 
805 1 -7.52925 34.4804 -14.6348 7.36986e-05 1 
806 1 -9.70066 33.7261 -12.9346 0.000153359 1 
807 1 -9.83438 36.17 -14.4167 0.00010372 1 
808 1 -8.01549 35.9396 -12.2211 0.000251738 1 
817 1 -4.03398 7.68256 -14.7699 9.04421e-05 1 
819 1 -6.33916 9.36741 -14.5593 0.000122715 1 
821 1 -4.65298 11.5749 -13.8562 0.000154252 1 
823 1 -6.95754 13.265 -13.6426 0.000140343 1 
825 1 -5.27119 15.4769 -12.9346 0.000153359 1 
826 1 -5.40491 17.9208 -14.4167 0.00010372 1 
827 1 -7.57698 17.1687 -12.7136 0.000204448 1 
828 1 -7.71082 19.6077 -14.1974 0.000105649 1 
829 1 -5.89183 19.3803 -11.9989 0.000366521 1 
830 1 -6.02566 21.8149 -13.485 0.000174359 1 
831 1 -8.19908 21.0639 -11.7777 0.000329064 1 
832 1 -8.33172 23.4957 -13.2714 0.000151876 1 
833 1 -6.51498 23.269 -11.0619 0.00068194 1 
834 1 -6.64703 25.6987 -12.5646 0.000240128 1 
835 1 -8.82166 24.9435 -10.8544 0.000642955 1 
836 1 -8.95167 27.3797 -12.3595 0.000338521 1 
837 1 -7.13799 27.1443 -10.1514 0.00103014 1 
838 1 -7.26579 29.5859 -11.6585 0.000573005 1 
839 1 -9.43703 28.8231 -9.95552 0.0018316 1 
840 1 -9.56755 31.2757 -11.4515 0.000451601 1 
841 1 -7.74904 31.0325 -9.25774 0.00248095 1 
842 1 -7.88095 33.4897 -10.7444 0.000467838 1 
843 1 -10.0474 32.7312 -9.05236 0.00143415 1 
844 1 -10.1849 35.1863 -10.5244 0.000425863 1 
845 1 -8.36142 34.951 -8.34121 0.00126316 1 
846 1 -3.28135 1.35851 -14.1974 0.000105649 1 
847 1 179.697 0.608009 -12.489 0.00028565 1 
848 1 -5.58786 3.04245 -13.9787 0.000107178 1 
849 1 -3.76961 2.81471 -11.7777 0.000329064 1 
850 1 -3.90225 5.24648 -13.2714 0.000151876 1 
851 1 -6.07823 4.49362 -11.5598 0.000438496 1 
852 1 -6.20842 6.92692 -13.0605 0.000194303 1 
853 1 -4.39219 6.69432 -10.8544 0.000642955 1 
854 1 -4.5222 9.13047 -12.3595 0.000338521 1 
855 1 -6.69821 8.37056 -10.6514 0.000847804 1 
856 1 -6.82603 10.8159 -12.153 0.00043754 1 
857 1 -5.00756 10.5739 -9.95552 0.0018316 1 
858 1 -5.13808 13.0264 -11.4515 0.000451601 1 
859 1 -7.31044 12.2643 -9.75732 0.00145723 1 
860 1 -7.44184 14.7214 -11.2365 0.000418889 1 
861 1 -5.61796 14.482 -9.05236 0.00143415 1 
862 1 -5.75544 16.9371 -10.5244 0.000425863 1 
863 1 -7.92123 16.1827 -8.8304 0.00172038 1 
864 1 -8.06312 18.6295 -10.2969 0.000633169 1 
865 1 -6.23807 18.4019 -8.11 0.0013727 1 
866 1 -6.38012 20.8416 -9.57489 0.00129792 1 
867 1 -8.55268 20.0928 -7.87387 0.00230861 1 
868 1 -8.69039 22.5173 -9.35465 0.00119675 1 
869 1 -6.8756 22.3027 -7.13981 0.00579985 1 
870 1 -7.00883 24.7204 -8.63241 0.00340027 1 
871 1 -9.18899 23.9629 -6.93531 0.0106573 1 
872 1 -9.31267 26.3841 -8.4408 0.00510937 1 
873 1 -7.50691 26.1784 -6.18722 0.0406602 1 
874 1 -7.62353 28.5798 -7.73738 0.0102235 1 
875 1 -9.82626 27.8094 -6.04629 0.0269291 1 
876 1 -9.91727 30.2644 -7.57205 0.00927348 1 
877 1 -8.12644 29.9955 -5.36072 0.056679 1 
878 1 -8.22346 32.4838 -6.86807 0.0132965 1 
879 1 -10.3742 31.72 -5.21912 0.0502137 1 
880 1 -10.5106 34.1957 -6.65149 0.00971564 1 
881 1 -8.65702 33.939 -4.4593 0.109003 1 
882 1 -10.9792 35.6798 -4.25799 0.0739356 1 
883 1 181.518 0.380338 -10.2969 0.000633169 1 
884 1 -5.94502 2.06627 -10.0665 0.00104135 1 
885 1 -4.12321 1.8436 -7.87387 0.00230861 1 
886 1 -4.26092 4.2681 -9.35465 0.00119675 1 
887 1 -6.44204 3.51981 -7.63393 0.00349818 1 
888 1 -6.57393 5.93745 -9.14176 0.00237004 1 
889 1 -4.75952 5.71374 -6.93531 0.0106573 1 
890 1 -4.8832 8.13485 -8.4408 0.00510937 1 
891 1 -7.08034 7.36917 -6.73449 0.0171876 1 
892 1 -7.18986 9.80903 -8.25791 0.00390897 1 
893 1 -5.39678 9.56019 -6.04629 0.0269291 1 
894 1 -5.4878 12.0152 -7.57205 0.00927348 1 
895 1 -7.6593 11.2497 -5.8877 0.0395014 1 
896 1 -7.78865 13.7155 -7.37695 0.00643052 1 
897 1 -5.94471 13.4707 -5.21912 0.0502137 1 
898 1 -6.08108 15.9465 -6.65149 0.00971564 1 
899 1 -8.25126 15.1761 -5.02411 0.0238412 1 
900 1 -8.4002 17.6526 -6.4229 0.010117 1 
901 1 -6.54972 17.4306 -4.25799 0.0739356 1 
902 1 -6.73178 19.8694 -5.68716 0.00791873 1 
903 1 -8.87489 19.1 -3.97027 0.0798105 1 
904 1 -9.04872 21.5486 -5.43643 0.0102311 1 
905 1 -7.23372 21.3197 -3.25801 0.255315 1 
906 1 -7.39865 23.7831 -4.70386 0.0880371 1 
907 1 -9.52457 23.0227 -2.95593 0.384186 1 
908 1 -9.70681 25.3809 -4.53857 0.197829 1 
910 1 -8.06686 27.5864 -3.74495 4.86403 5 
912 1 -10.3072 29.2733 -3.65102 6.93911 5 
913 1 -8.54945 31.4201 -2.99274 4.88665 5 
915 1 -10.8219 33.191 -2.91455 0.208249 1 
919 1 178.863 1.09867 -6.1615 0.00974678 1 
920 1 -4.44542 0.850745 -3.97027 0.0798105 1 
921 1 -4.61925 3.2994 -5.43643 0.0102311 1 
922 1 -6.76551 2.55924 -3.70535 0.0796326 1 
923 1 -6.9392 4.95689 -5.18807 0.0364463 1 
924 1 -5.09509 4.77353 -2.95593 0.384186 1 
925 1 -5.27734 7.13174 -4.53857 0.197829 1 
926 1 -7.56669 6.3975 -2.81862 1.90647 5 
927 1 -7.66374 8.82482 -4.36376 0.553888 1 
929 1 -5.87777 11.0241 -3.65102 6.93911 5 
931 1 -8.09802 12.6941 -3.58365 0.34383 1 
933 1 -6.39244 14.9417 -2.91455 0.208249 1 
935 1 -8.68403 16.599 -2.67048 0.161146 1 
1673 1 -10.7686 27.6166 -14.5593 0.000122715 1 
1675 1 -13.0735 29.3045 -14.3461 0.000149236 1 
1677 1 -11.387 31.5142 -13.6426 0.000140343 1 
1679 1 -13.6926 33.2062 -13.4231 0.000161451 1 
1680 1 -13.8259 35.6488 -14.9069 8.71642e-05 1 
1681 1 -12.0065 35.4179 -12.7136 0.000204448 1 
1693 1 -8.64406 11.0553 -14.3461 0.000149236 1 
1695 1 -10.949 12.7461 -14.128 0.000151855 1 
1697 1 -9.2631 14.957 -13.4231 0.000161451 1 
1698 1 -9.39642 17.3996 -14.9069 8.71642e-05 1 
1699 1 -11.5694 16.6486 -13.1977 0.000260031 1 
1700 1 -11.7024 19.0867 -14.6848 0.00010593 1 
1701 1 -9.88438 18.8572 -12.489 0.00028565 1 
1702 1 -10.0173 21.2917 -13.9787 0.000107178 1 
1703 1 -12.1921 20.5418 -12.2635 0.000390356 1 
1704 1 -12.3235 22.9738 -13.7618 0.0001468 1 
1705 1 -10.5077 22.7428 -11.5598 0.000438496 1 
1706 1 -10.6379 25.1761 -13.0605 0.000194303 1 
1707 1 -12.8149 24.42 -11.3459 0.000699572 1 
1708 1 -12.9432 26.859 -12.8504 0.000313418 1 
1709 1 -11.1277 26.6198 -10.6514 0.000847804 1 
1710 1 -11.2555 29.0651 -12.153 0.00043754 1 
1711 1 -13.4323 28.3036 -10.4481 0.00103442 1 
1712 1 -13.5599 30.7562 -11.9414 0.000515954 1 
1713 1 -11.7399 30.5135 -9.75732 0.00145723 1 
1714 1 -11.8713 32.9706 -11.2365 0.000418889 1 
1715 1 -14.0431 32.211 -9.5445 0.00181862 1 
1716 1 -14.1781 34.6658 -11.0112 0.000585858 1 
1717 1 -12.3507 34.4319 -8.8304 0.00172038 1 
1718 1 -14.6634 36.1306 -8.59532 0.0025483 1 
1719 1 177.879 0.837444 -14.6848 0.00010593 1 
1720 1 175.706 0.0884481 -12.9691 0.000357099 1 
1721 1 -9.5782 2.52223 -14.4634 0.000110473 1 
1722 1 -7.7626 2.2926 -12.2635 0.000390356 1 
1723 1 -7.89406 4.72459 -13.7618 0.0001468 1 
1724 1 -10.0682 3.97295 -12.0411 0.000442374 1 
1725 1 -10.199 6.40701 -13.5464 0.000245483 1 
1726 1 -8.38542 6.17082 -11.3459 0.000699572 1 
1727 1 -8.51369 8.60981 -12.8504 0.000313418 1 
1728 1 -10.6892 7.85088 -11.1342 0.000943628 1 
1729 1 -10.8175 10.2973 -12.6378 0.000432722 1 
1730 1 -9.00282 10.0543 -10.4481 0.00103442 1 
1731 1 -9.13043 12.507 -11.9414 0.000515954 1 
1732 1 -11.3029 11.7459 -10.2365 0.00137967 1 
1733 1 -11.4355 14.202 -11.7192 0.000505767 1 
1734 1 -9.61367 13.9618 -9.5445 0.00181862 1 
1735 1 -9.74861 16.4166 -11.0112 0.000585858 1 
1736 1 -11.9198 15.6639 -9.31101 0.00168043 1 
1737 1 -12.0575 18.1095 -10.7772 0.000999676 1 
1738 1 -10.2339 17.8814 -8.59532 0.0025483 1 
1739 1 -10.3745 20.3155 -10.0665 0.00104135 1 
1740 1 -12.5476 19.5737 -8.34475 0.00377633 1 
1741 1 -12.6854 21.9942 -9.83528 0.00158282 1 
1742 1 -10.8715 21.769 -7.63393 0.00349818 1 
1743 1 -11.0034 24.1867 -9.14176 0.00237004 1 
1744 1 -13.186 23.4389 -7.39356 0.00682621 1 
1745 1 -13.3111 25.8572 -8.93603 0.00375906 1 
1746 1 -11.5098 25.6184 -6.73449 0.0171876 1 
1747 1 -11.6193 28.0582 -8.25791 0.00390897 1 
1748 1 -13.8139 27.2912 -6.55076 0.0333423 1 
1749 1 -13.9173 29.748 -8.05758 0.00240818 1 
1750 1 -12.0888 29.4989 -5.8877 0.0395014 1 
1751 1 -12.2181 31.9647 -7.37695 0.00643052 1 
1752 1 -14.3935 31.1873 -5.68161 0.0207703 1 
1753 1 -14.5212 33.6704 -7.15468 0.00637236 1 
1754 1 -12.6807 33.4253 -5.02411 0.0238412 1 
1755 1 -12.8297 35.9018 -6.4229 0.010117 1 
1756 1 -14.9952 35.1403 -4.76744 0.0238753 1 
1757 1 175.217 1.54711 -10.5397 0.00132697 1 
1758 1 177.034 1.32454 -8.34475 0.00377633 1 
1759 1 -8.25591 3.74498 -9.83528 0.00158282 1 
1760 1 -10.4272 3.00315 -8.09345 0.00403506 1 
1761 1 -10.5606 5.41611 -9.61489 0.00200055 1 
1762 1 -8.75651 5.18967 -7.39356 0.00682621 1 
1763 1 -8.88164 7.60803 -8.93603 0.00375906 1 
1764 1 -11.0639 6.84677 -7.1915 0.0162017 1 
1765 1 -11.1806 9.2901 -8.72957 0.00425395 1 
1766 1 -9.38443 9.04197 -6.55076 0.0333423 1 
1767 1 -9.48783 11.4988 -8.05758 0.00240818 1 
1768 1 -11.666 10.7299 -6.33662 0.0155814 1 
1769 1 -11.7813 13.1982 -7.84561 0.00483073 1 
1770 1 -9.96401 12.9381 -5.68161 0.0207703 1 
1771 1 -10.0917 15.4212 -7.15468 0.00637236 1 
1772 1 -12.2479 14.6708 -5.47014 0.0196714 1 
1773 1 -12.4023 17.1388 -6.89663 0.00784768 1 
1774 1 -10.5657 16.8911 -4.76744 0.0238753 1 
1775 1 -10.7187 19.3479 -6.1615 0.00974678 1 
1776 1 -12.8897 18.6156 -4.44946 0.0828095 1 
1777 1 -13.0444 21.0315 -5.88501 0.0140915 1 
1778 1 -11.195 20.8084 -3.70535 0.0796326 1 
1779 1 -11.3687 23.2061 -5.18807 0.0364463 1 
1780 1 -13.5455 22.4418 -3.41795 0.462563 1 
1781 1 -13.7155 24.877 -4.96147 0.215181 1 
1782 1 -11.9962 24.6467 -2.81862 1.90647 5 
1783 1 -12.0932 27.074 -4.36376 0.553888 1 
1785 1 -14.2672 28.7014 -4.17641 0.531439 1 
1787 1 -12.5275 30.9433 -3.58365 0.34383 1 
1789 1 -14.8425 32.6765 -3.35023 0.107972 1 
1791 1 -13.1135 34.8482 -2.67048 0.161146 1 
1793 1 174.869 0.58573 -6.61578 0.0121846 1 
1794 1 176.692 0.366372 -4.44946 0.0828095 1 
1795 1 -8.61495 2.78233 -5.88501 0.0140915 1 
1796 1 -10.7652 2.0285 -4.11381 0.109585 1 
1797 1 -10.9284 4.44446 -5.62809 0.0438977 1 
1798 1 -9.116 4.19263 -3.41795 0.462563 1 
1799 1 -9.28607 6.6278 -4.96147 0.215181 1 
1800 1 -11.3236 5.98066 -3.07692 0.667241 1 
1801 1 -11.5207 8.27648 -4.75973 0.242641 1 
1803 1 -9.83773 10.4521 -4.17641 0.531439 1 
1804 1 -12.0805 9.76188 -2.50874 7.57699 5 
1805 1 -12.1343 12.2235 -3.97667 0.159743 1 
1807 1 -10.4131 14.4273 -3.35023 0.107972 1 
1809 1 -12.6868 16.1239 -3.06592 0.16003 1 
2638 1 -17.0632 28.7866 -14.8286 0.000134091 1 
2640 1 -15.3785 30.9953 -14.128 0.000151855 1 
2642 1 -17.6831 32.6877 -13.9039 0.000179783 1 
2644 1 -15.9988 34.8978 -13.1977 0.000260031 1 
2656 1 -12.6337 10.5374 -14.8286 0.000134091 1 
2658 1 -14.9369 12.229 -14.6068 0.000114365 1 
2660 1 -13.2537 14.4385 -13.9039 0.000179783 1 
2662 1 -15.5573 16.1304 -13.6755 0.000253909 1 
2664 1 -13.8751 18.3377 -12.9691 0.000357099 1 
2665 1 -14.0077 20.7714 -14.4634 0.000110473 1 
2666 1 -16.179 20.0228 -12.7416 0.000346859 1 
2667 1 -16.3115 22.4551 -14.2436 0.000139227 1 
2668 1 -14.4976 22.2222 -12.0411 0.000442374 1 
2669 1 -14.6285 24.6562 -13.5464 0.000245483 1 
2670 1 -16.8002 23.9021 -11.8224 0.000505346 1 
2671 1 -16.9314 26.3413 -13.3313 0.0003338 1 
2672 1 -15.1187 26.1001 -11.1342 0.000943628 1 
2673 1 -15.247 28.5465 -12.6378 0.000432722 1 
2674 1 -17.4175 27.7865 -10.9221 0.00127841 1 
2675 1 -17.5497 30.2387 -12.4186 0.000386581 1 
2676 1 -15.7324 29.9951 -10.2365 0.00137967 1 
2677 1 -15.865 32.4512 -11.7192 0.000505767 1 
2678 1 -18.0331 31.6935 -10.0122 0.00116871 1 
2679 1 -18.1699 34.1473 -11.4867 0.000660853 1 
2680 1 -16.3493 33.9131 -9.31101 0.00168043 1 
2681 1 -16.487 36.3587 -10.7772 0.000999676 1 
2682 1 -18.656 35.6137 -9.06225 0.00265048 1 
2684 1 171.588 2.0044 -14.9444 8.29957e-05 1 
2685 1 173.402 1.77359 -12.7416 0.000346859 1 
2686 1 -11.8821 4.20592 -14.2436 0.000139227 1 
2687 1 -14.0512 3.4559 -12.5188 0.000295113 1 
2688 1 -14.1844 5.8902 -14.0261 0.000179726 1 
2689 1 -12.3707 5.65292 -11.8224 0.000505346 1 
2690 1 -12.5019 8.09206 -13.3313 0.0003338 1 
2691 1 -14.6699 7.33573 -11.6087 0.000742996 1 
2692 1 -14.8034 9.78136 -13.114 0.000293635 1 
2693 1 -12.988 9.53732 -10.9221 0.00127841 1 
2694 1 -13.1202 11.9895 -12.4186 0.000386581 1 
2695 1 -15.2861 11.2313 -10.7043 0.000868909 1 
2696 1 -15.4223 13.6852 -12.1917 0.00035094 1 
2697 1 -13.6037 13.4443 -10.0122 0.00116871 1 
2698 1 -13.7404 15.8981 -11.4867 0.000660853 1 
2699 1 -15.905 15.1467 -9.7744 0.00114209 1 
2700 1 -16.0441 17.5914 -11.249 0.000998207 1 
2701 1 -14.2265 17.3645 -9.06225 0.00265048 1 
2702 1 -14.3646 19.7963 -10.5397 0.00132697 1 
2703 1 -16.5306 19.0559 -8.80802 0.0037962 1 
2704 1 -16.6679 21.475 -10.3082 0.00127703 1 
2705 1 -14.8567 21.2524 -8.09345 0.00403506 1 
2706 1 -14.9901 23.6653 -9.61489 0.00200055 1 
2707 1 -17.16 22.9181 -7.86214 0.00697686 1 
2708 1 -17.289 25.3427 -9.40077 0.00245413 1 
2709 1 -15.4934 25.096 -7.1915 0.0162017 1 
2710 1 -15.6101 27.5393 -8.72957 0.00425395 1 
2711 1 -17.7677 26.7713 -6.97058 0.0114952 1 
2712 1 -17.8978 29.2298 -8.52143 0.00569789 1 
2713 1 -16.0954 28.9791 -6.33662 0.0155814 1 
2714 1 -16.2108 31.4474 -7.84561 0.00483073 1 
2715 1 -18.3633 30.686 -6.13578 0.0194564 1 
2716 1 -18.511 33.1573 -7.60917 0.00379607 1 
2717 1 -16.6773 32.92 -5.47014 0.0196714 1 
2718 1 -16.8317 35.388 -6.89663 0.00784768 1 
2719 1 -18.9709 34.6275 -5.19788 0.014063 1 
2720 1 171.236 1.02957 -11.0132 0.00134727 1 
2721 1 173.051 0.806674 -8.80802 0.0037962 1 
2722 1 -12.2384 3.22575 -10.3082 0.00127703 1 
2723 1 170.75 2.48853 -8.56188 0.00759108 1 
2724 1 -14.5368 4.90209 -10.0881 0.00145091 1 
2725 1 -12.7305 4.66887 -7.86214 0.00697686 1 
2726 1 -12.8595 7.09345 -9.40077 0.00245413 1 
2727 1 -15.0114 6.33653 -7.64782 0.0120126 1 
2728 1 -15.1476 8.77498 -9.19534 0.00381473 1 
2729 1 -13.3382 8.52205 -6.97058 0.0114952 1 
2730 1 -13.4683 10.9806 -8.52143 0.00569789 1 
2731 1 -15.612 10.2119 -6.79985 0.0206841 1 
2732 1 -15.7616 12.6856 -8.29865 0.00199799 1 
2733 1 -13.9338 12.4367 -6.13578 0.0194564 1 
2734 1 -14.0815 14.908 -7.60917 0.00379607 1 
2735 1 -16.2218 14.15 -5.89264 0.00624 1 
2736 1 -16.3826 16.6148 -7.34749 0.00348305 1 
2737 1 -14.5414 16.3783 -5.19788 0.014063 1 
2738 1 -14.7123 18.8349 -6.61578 0.0121846 1 
2739 1 -16.8515 18.0797 -4.89646 0.0174599 1 
2740 1 -17.017 20.5169 -6.33808 0.0162194 1 
2741 1 -15.1946 20.2777 -4.11381 0.109585 1 
2742 1 -15.3579 22.6937 -5.62809 0.0438977 1 
2743 1 -17.4789 22.0079 -3.82217 0.143275 1 
2744 1 -17.6334 24.3499 -5.37906 0.0731047 1 
2745 1 -15.753 24.2299 -3.07692 0.667241 1 
2746 1 -15.9502 26.5257 -4.75973 0.242641 1 
2747 1 -18.191 25.7624 -2.98764 5.25801 5 
2748 1 -18.2634 28.2234 -4.58028 0.10624 1 
2749 1 -16.51 28.0111 -2.50874 7.57699 5 
2750 1 -16.5637 30.4727 -3.97667 0.159743 1 
2752 1 -18.7729 32.1595 -3.75488 0.103434 1 
2754 1 -17.1163 34.3731 -3.06592 0.16003 1 
2756 1 -19.3947 36.0399 -2.74396 0.197003 1 
2757 1 170.897 0.0653687 -7.08316 0.00381062 1 
2758 1 172.564 2.26766 -6.33808 0.0162194 1 
2759 1 170.411 1.53575 -4.61984 0.0457144 1 
2760 1 -14.8852 3.95024 -6.07347 0.069512 1 
2761 1 -13.0494 3.75867 -3.82217 0.143275 1 
2762 1 -13.2039 6.10067 -5.37906 0.0731047 1 
2763 1 -15.4537 5.34874 -3.53676 5.1204 5 
2764 1 -15.5079 7.73803 -5.22508 0.0767635 1 
2765 1 -13.7616 7.51317 -2.98764 5.25801 5 
2766 1 -13.8339 9.97418 -4.58028 0.10624 1 
2767 1 -15.9046 9.18746 -2.82649 3.69697 5 
2768 1 -16.0375 11.6692 -4.42189 0.109803 1 
2770 1 -14.3434 13.9103 -3.75488 0.103434 1 
2772 1 -16.6649 15.6276 -3.50233 0.0699009 1 
2774 1 -14.9652 17.7907 -2.74396 0.197003 1 
2776 1 -17.3714 19.5582 -2.48226 0.872841 1 
2781 1 172.21 1.30899 -2.48226 0.872841 1 
3598 1 -19.3663 30.4782 -14.6068 0.000114365 1 
3600 1 -21.6687 32.1709 -14.3814 0.000124664 1 
3602 1 -19.9868 34.3796 -13.6755 0.000253909 1 
3603 1 -22.2893 36.0691 -13.4467 0.000304861 1 
3619 1 -17.2392 13.9217 -14.3814 0.000124664 1 
3621 1 -19.541 15.6136 -14.1547 0.000145776 1 
3623 1 -17.8598 17.8199 -13.4467 0.000304861 1 
3624 1 -17.9936 20.2536 -14.9444 8.29957e-05 1 
3625 1 -20.1613 19.5055 -13.2222 0.000205862 1 
3626 1 -20.2957 21.9386 -14.7249 8.70863e-05 1 
3627 1 -18.4806 21.7051 -12.5188 0.000295113 1 
3628 1 -18.6138 24.1394 -14.0261 0.000179726 1 
3629 1 -20.7811 23.387 -12.3021 0.00035719 1 
3630 1 -20.9152 25.8263 -13.8095 0.000183711 1 
3631 1 -19.0994 25.5849 -11.6087 0.000742996 1 
3632 1 -19.2328 28.0306 -13.114 0.000293635 1 
3633 1 -21.3977 27.2738 -11.3955 0.000637649 1 
3634 1 -21.5336 29.7242 -12.8925 0.000213661 1 
3635 1 -19.7155 29.4805 -10.7043 0.000868909 1 
3636 1 -19.8518 31.9344 -12.1917 0.00035094 1 
3637 1 -22.0142 31.1815 -10.478 0.000543891 1 
3638 1 -22.1532 33.6306 -11.9594 0.000423411 1 
3639 1 -20.3345 33.3959 -9.7744 0.00114209 1 
3640 1 -20.4736 35.8406 -11.249 0.000998207 1 
3641 1 -22.6351 35.0952 -9.52952 0.00134302 1 
3643 1 169.42 1.25628 -13.2222 0.000205862 1 
3644 1 -15.8662 3.68938 -14.7249 8.70863e-05 1 
3645 1 167.118 2.93989 -13.0027 0.000171122 1 
3646 1 -18.1681 5.37518 -14.5078 0.000102422 1 
3647 1 -16.3517 5.13782 -12.3021 0.00035719 1 
3648 1 -16.4857 7.5771 -13.8095 0.000183711 1 
3649 1 -18.6522 6.82278 -12.0897 0.000439723 1 
3650 1 -18.7866 9.26776 -13.5921 0.000158046 1 
3651 1 -16.9682 9.02459 -11.3955 0.000637649 1 
3652 1 -17.1042 11.475 -12.8925 0.000213661 1 
3653 1 -19.2679 10.7211 -11.1794 0.000456634 1 
3654 1 -19.4049 13.1711 -12.6669 0.000201351 1 
3655 1 -17.5848 12.9323 -10.478 0.000543891 1 
3656 1 -17.7238 15.3814 -11.9594 0.000423411 1 
3657 1 -19.885 14.6337 -10.2451 0.00059131 1 
3658 1 -20.025 17.0737 -11.7271 0.000470771 1 
3659 1 -18.2056 16.846 -9.52952 0.00134302 1 
3660 1 -18.3457 19.2788 -11.0132 0.00134727 1 
3661 1 -20.5072 18.5354 -9.29019 0.00142606 1 
3662 1 -20.6458 20.9578 -10.7901 0.0008934 1 
3663 1 -18.831 20.7377 -8.56188 0.00759108 1 
3664 1 -18.9663 23.1513 -10.0881 0.00145091 1 
3665 1 -21.1268 22.4025 -8.35208 0.00607423 1 
3666 1 -21.2613 24.8286 -9.88068 0.00220723 1 
3667 1 -19.4408 24.5857 -7.64782 0.0120126 1 
3668 1 -19.5771 27.0242 -9.19534 0.00381473 1 
3669 1 -21.735 26.2641 -7.47989 0.0112744 1 
3670 1 -21.8734 28.723 -8.98931 0.00167879 1 
3671 1 -20.0415 28.4611 -6.79985 0.0206841 1 
3672 1 -20.1911 30.9348 -8.29865 0.00199799 1 
3673 1 -22.3358 30.1816 -6.58908 0.00691769 1 
3674 1 -22.4884 32.6463 -8.06038 0.0013983 1 
3675 1 -20.6513 32.3992 -5.89264 0.00624 1 
3676 1 -20.8121 34.864 -7.34749 0.00348305 1 
3677 1 -22.9578 34.123 -5.63388 0.00827127 1 
3678 1 -21.281 36.3289 -4.89646 0.0174599 1 
3679 1 167.254 0.510874 -11.4997 0.000409724 1 
3680 1 169.074 0.286191 -9.29019 0.00142606 1 
3681 1 168.936 2.70864 -10.7901 0.0008934 1 
3682 1 166.768 1.96458 -9.06319 0.00134961 1 
3683 1 -18.5182 4.38679 -10.5771 0.000822613 1 
3684 1 -16.6974 4.15327 -8.35208 0.00607423 1 
3685 1 -16.8319 6.57939 -9.88068 0.00220723 1 
3686 1 -19.0046 5.82525 -8.16198 0.00423957 1 
3687 1 -19.1336 8.26774 -9.68129 0.00145295 1 
3688 1 -17.3056 8.01493 -7.47989 0.0112744 1 
3689 1 -17.444 10.4738 -8.98931 0.00167879 1 
3690 1 -19.6086 9.71381 -7.29111 0.0057781 1 
3691 1 -19.7421 12.1805 -8.77009 0.00148732 1 
3692 1 -17.9063 11.9324 -6.58908 0.00691769 1 
3693 1 -18.0589 14.3971 -8.06038 0.0013983 1 
3694 1 -20.2051 13.6489 -6.35733 0.00869312 1 
3695 1 -20.3608 16.1021 -7.81586 0.00165235 1 
3696 1 -18.5284 15.8737 -5.63388 0.00827127 1 
3697 1 -18.6844 18.3146 -7.08316 0.00381062 1 
3698 1 -20.8329 17.5709 -5.37087 0.0072376 1 
3699 1 -20.9903 19.9942 -6.84182 0.00606225 1 
3700 1 -19.1706 19.785 -4.61984 0.0457144 1 
3701 1 -19.3146 22.1994 -6.07347 0.069512 1 
3702 1 -21.4846 21.4293 -4.38869 0.19895 1 
3703 1 -21.6155 23.8352 -5.92912 0.0500464 1 
3704 1 -19.8832 23.5979 -3.53676 5.1204 5 
3705 1 -19.9374 25.9872 -5.22508 0.0767635 1 
3706 1 -22.1235 25.3142 -3.4823 7.05787 5 
3707 1 -22.1812 27.7052 -5.12045 0.0894645 1 
3708 1 -20.3341 27.4367 -2.82649 3.69697 5 
3709 1 -20.467 29.9184 -4.42189 0.109803 1 
3710 1 -22.6067 29.1592 -2.84569 0.410934 1 
3711 1 -22.783 31.6679 -4.1894 0.076871 1 
3713 1 -21.0943 33.8768 -3.50233 0.0699009 1 
3715 1 -23.4104 35.5845 -3.17468 0.256235 1 
3717 1 168.591 1.74496 -6.84182 0.00606225 1 
3718 1 166.428 0.997761 -5.10689 0.0222927 1 
3719 1 166.275 3.40723 -6.625 0.0157596 1 
3720 1 168.097 3.18013 -4.38869 0.19895 1 
3721 1 -17.186 5.58597 -5.92912 0.0500464 1 
3722 1 -19.433 4.88261 -4.26544 0.664213 1 
3723 1 -19.4773 7.26344 -5.77749 0.0398017 1 
3724 1 -17.6941 7.065 -3.4823 7.05787 5 
3725 1 -17.7517 9.45595 -5.12045 0.0894645 1 
3726 1 -19.9421 8.66678 -3.46701 0.9374 1 
3727 1 -20.0749 11.1574 -4.92841 0.0380376 1 
3728 1 -18.1772 10.91 -2.84569 0.410934 1 
3729 1 -18.3535 13.4187 -4.1894 0.076871 1 
3730 1 -20.5122 12.6352 -2.62148 0.214795 1 
3731 1 -20.6427 15.1294 -3.92234 0.0539836 1 
3733 1 -18.9809 17.3353 -3.17468 0.256235 1 
3735 1 -21.2794 19.0238 -2.88365 0.305053 1 
3740 1 168.302 0.774607 -2.88365 0.305053 1 
3742 1 165.884 2.42674 -2.72823 1.17714 5 
4563 1 -25.6523 31.6555 -14.8622 8.28655e-05 1 
4565 1 -23.9705 33.8628 -14.1547 0.000145776 1 
4567 1 -26.2724 35.552 -13.9296 0.000133147 1 
4582 1 -21.2228 13.4063 -14.8622 8.28655e-05 1 
4584 1 -23.5249 15.0978 -14.6384 0.000106508 1 
4586 1 -21.843 17.3028 -13.9296 0.000133147 1 
4588 1 -24.1456 18.9893 -13.708 0.000102771 1 
4590 1 -22.4633 21.1891 -13.0027 0.000171122 1 
4591 1 -22.5975 23.6244 -14.5078 0.000102422 1 
4592 1 -24.766 22.8731 -12.7878 0.000208589 1 
4593 1 -24.8992 25.3125 -14.2922 0.000120597 1 
4594 1 -23.0817 25.072 -12.0897 0.000439723 1 
4595 1 -23.2161 27.517 -13.5921 0.000158046 1 
4596 1 -25.3833 26.7628 -11.8786 0.000427626 1 
4597 1 -25.5172 29.2111 -13.3724 0.000139167 1 
4598 1 -23.6974 28.9703 -11.1794 0.000456634 1 
4599 1 -23.8344 31.4203 -12.6669 0.000201351 1 
4600 1 -25.9979 30.6706 -10.9562 0.000518837 1 
4601 1 -26.136 33.1155 -12.4388 0.000287359 1 
4602 1 -24.3144 32.8829 -10.2451 0.00059131 1 
4603 1 -24.4545 35.3229 -11.7271 0.000470771 1 
4604 1 -26.6175 34.5798 -10.0098 0.000893541 1 
4606 1 165.436 0.740103 -13.708 0.000102771 1 
4608 1 163.132 2.4252 -13.4901 0.000121493 1 
4609 1 -22.1526 4.8608 -14.9936 7.05542e-05 1 
4610 1 -20.3365 4.62386 -12.7878 0.000208589 1 
4611 1 -20.4697 7.06327 -14.2922 0.000120597 1 
4612 1 -22.6392 6.31068 -12.5759 0.000258285 1 
4613 1 -22.7713 8.75445 -14.0762 0.000118075 1 
4614 1 -20.9538 8.51356 -11.8786 0.000427626 1 
4615 1 -21.0877 10.9619 -13.3724 0.000139167 1 
4616 1 -23.2545 10.2093 -11.6632 0.000423535 1 
4617 1 -23.3893 12.6573 -13.1494 0.000189016 1 
4618 1 -21.5684 12.4214 -10.9562 0.000518837 1 
4619 1 -21.7065 14.8663 -12.4388 0.000287359 1 
4620 1 -23.8706 14.1211 -10.7273 0.00079913 1 
4621 1 -24.0095 16.5579 -12.2114 0.000350519 1 
4622 1 -22.188 16.3306 -10.0098 0.000893541 1 
4623 1 -22.3277 18.7601 -11.4997 0.000409724 1 
4624 1 -24.4947 18.0192 -9.77719 0.00117378 1 
4625 1 -24.6322 20.4417 -11.2803 0.000403111 1 
4626 1 -22.8136 20.2138 -9.06319 0.00134961 1 
4627 1 -22.9476 22.636 -10.5771 0.000822613 1 
4628 1 -25.1228 21.8855 -8.855 0.00315466 1 
4629 1 -25.2529 24.3185 -10.3714 0.00065381 1 
4630 1 -23.4341 24.0745 -8.16198 0.00423957 1 
4631 1 -23.5631 26.5169 -9.68129 0.00145295 1 
4632 1 -25.7402 25.7617 -7.96695 0.00281041 1 
4633 1 -25.8635 28.2148 -9.47421 0.00163043 1 