ITEM: TIMESTEP
0
ITEM: NUMBER OF ATOMS
15679
ITEM: BOX BOUNDS xy xz yz pp pp ss
-2.5722529906699998e+02 1.3614266414299999e+02 -2.5722529906699998e+02
0.0000000000000000e+00 6.4313766177000005e+01 0.0000000000000000e+00
-1.3118600065890672e+02 1.4520623624164637e+02 0.0000000000000000e+00
ITEM: ATOMS id type x y z c_csym c_cna 
92 1 -1.1919 2.87044 -13.1395 0.000516758 1 
93 1 -1.79858 1.98416 -9.25303 0.000887743 1 
94 1 -0.669835 2.87453 -6.81251 0.00770876 1 
95 1 -2.44174 1.1024 -5.39513 0.0769813 1 
96 1 -1.39341 2.00552 -3.01541 1.80685 5 
97 1 133.266 0.173697 -1.38258 6.13744 5 
111 1 132.064 0.232051 -14.1618 0.000433728 1 
112 1 -2.93636 1.10543 -11.7028 0.000822925 1 
113 1 132.591 0.220673 -7.81448 0.0077614 1 
392 1 -1.08929 8.48723 -11.8909 0.00125633 1 
393 1 -1.68647 7.60554 -8.03517 0.004389 1 
394 1 -0.539781 8.46573 -5.6134 0.0947276 1 
395 1 -0.587619 5.68743 -6.19926 0.0227079 1 
396 1 -2.20067 6.68931 -4.12514 0.39712 1 
397 1 -1.15787 7.96681 -1.72284 10.3695 5 
398 1 -0.925507 4.68821 -2.2734 4.64931 5 
399 1 -2.2951 5.17499 -0.0985785 10.1215 5 
413 1 -2.22853 7.60081 -14.3414 0.000420855 1 
414 1 -2.28043 4.79555 -14.9739 0.000295562 1 
415 1 -1.1394 5.67552 -12.5219 0.000607984 1 
416 1 -3.97195 5.83797 -12.9184 0.000453468 1 
417 1 -2.83028 6.72192 -10.4723 0.000885398 1 
418 1 -2.88186 3.9107 -11.0936 0.000616475 1 
419 1 -1.73931 4.79416 -8.64914 0.00173756 1 
420 1 -4.56858 4.95421 -9.05079 0.00212552 1 
421 1 -3.40715 5.83544 -6.60721 0.0138572 1 
422 1 -3.49286 3.03067 -7.21738 0.00444555 1 
423 1 -2.34109 3.92641 -4.76913 0.140357 1 
424 1 -5.16125 4.07641 -5.17593 0.0337353 1 
425 1 -3.9001 4.92691 -2.69707 1.39584 5 
426 1 -4.14936 2.14059 -3.37761 0.569785 5 
427 1 -3.42865 2.85216 -0.878851 6.76446 5 
428 1 -6.00137 3.29586 -1.36475 3.26293 5 
464 1 -4.02356 3.03146 -13.544 0.000432992 1 
465 1 -6.85524 3.19165 -13.9446 0.000378978 1 
466 1 -5.71299 4.07242 -11.4942 0.000694584 1 
467 1 130.377 1.26566 -12.11 0.000754717 1 
468 1 -4.62612 2.14503 -9.66131 0.000957991 1 
469 1 -7.45144 2.30486 -10.0638 0.000970369 1 
470 1 -6.30932 3.18093 -7.61593 0.00334131 1 
471 1 129.774 0.38016 -8.21618 0.00519945 1 
472 1 130.907 1.23975 -5.76048 0.0543944 1 
473 1 128.107 1.40142 -6.16432 0.0355466 1 
474 1 -6.92555 2.31293 -3.76752 0.150884 1 
475 1 130.367 0.479123 -1.76604 4.84925 5 
476 1 127.517 0.636332 -2.25389 4.57661 5 
529 1 129.234 0.390499 -14.5676 0.000377448 1 
530 1 126.404 0.548951 -14.9711 0.000295984 1 
531 1 127.548 1.4259 -12.5134 0.000629768 1 
532 1 126.957 0.537701 -8.62428 0.0026446 1 
959 1 -0.366827 14.9579 -14.4665 0.000418115 1 
960 1 -0.982754 14.1054 -10.5533 0.0028349 1 
961 1 -1.59545 13.291 -6.64953 0.0678448 1 
962 1 -0.458638 14.2298 -4.10478 0.329421 1 
963 1 -0.505263 11.3372 -5.01975 0.169093 1 
964 1 -2.17213 12.3323 -2.95093 6.11136 5 
965 1 -0.918396 12.9787 -0.668643 10.8524 5 
966 1 0.493207 10.3777 -0.810061 8.91426 5 
980 1 -2.1187 13.2093 -13.0357 0.00100851 1 
981 1 -2.17578 10.408 -13.6944 0.000724406 1 
982 1 -1.03848 11.303 -11.2296 0.00279061 1 
983 1 -3.86874 11.4586 -11.6158 0.00197816 1 
984 1 -2.72966 12.3611 -9.14139 0.0095054 1 
985 1 -2.78202 9.53784 -9.83211 0.00366103 1 
986 1 -1.64422 10.4222 -7.39763 0.0283562 1 
987 1 -4.47292 10.5878 -7.76925 0.0138134 1 
988 1 -3.3373 11.4992 -5.36539 0.135949 1 
989 1 -3.35773 8.64085 -5.97277 0.0378408 1 
990 1 -2.21637 9.61288 -3.62175 5.6725 5 
991 1 -5.0086 9.71641 -3.93659 0.328578 1 
992 1 -3.93249 7.77061 -2.29596 3.25435 5 
993 1 -5.61216 8.73509 -0.231508 5.15448 5 
1025 1 -5.00681 10.5635 -14.0846 0.000590814 1 
1026 1 -5.06118 7.75976 -14.7343 0.000351698 1 
1027 1 -3.92248 8.64832 -12.2783 0.000935771 1 
1028 1 -6.75533 8.80637 -12.6643 0.00083373 1 
1029 1 -5.61766 9.69891 -10.2081 0.00264269 1 
1030 1 -5.66294 6.88427 -10.8621 0.000828095 1 
1031 1 -4.51364 7.76918 -8.4189 0.00203348 1 
1032 1 -7.35448 7.93241 -8.80663 0.00323185 1 
1033 1 -6.18826 8.82009 -6.37782 0.0114099 1 
1034 1 -6.25081 5.99435 -7.02089 0.0098065 1 
1035 1 -5.08367 6.86406 -4.61558 0.0801738 1 
1036 1 -7.93446 7.0452 -5.00694 0.0219532 1 
1037 1 -6.75625 7.89438 -2.59296 0.132298 1 
1038 1 -6.82416 5.16067 -3.19157 0.212816 1 
1039 1 -5.43235 5.96695 -0.701392 6.27737 5 
1040 1 -8.4296 6.18826 -1.12062 0.882829 1 
1092 1 -6.80488 5.99829 -13.3118 0.000419529 1 
1093 1 -9.63774 6.1565 -13.703 0.000437641 1 
1094 1 -8.49873 7.04441 -11.2489 0.00109718 1 
1095 1 -8.54502 4.23333 -11.8895 0.000667132 1 
1096 1 -7.40173 5.1142 -9.4468 0.00224922 1 
1097 1 -10.2368 5.27808 -9.83376 0.00164196 1 
1098 1 -9.09583 6.16298 -7.40616 0.00527962 1 
1099 1 -9.13339 3.34245 -8.01929 0.0039735 1 
1100 1 -7.99764 4.23501 -5.5943 0.00796024 1 
1101 1 -10.8241 4.40242 -5.98733 0.0104207 1 
1102 1 -9.69246 5.32522 -3.57078 0.0838133 1 
1103 1 -9.72979 2.48649 -4.17311 0.059597 1 
1104 1 -8.64768 3.48369 -1.81899 5.87368 5 
1105 1 -11.3496 3.51016 -2.07294 7.36067 5 
1177 1 -9.68698 3.35105 -14.342 0.000311151 1 
1178 1 -12.5186 3.50948 -14.7373 0.000265542 1 
1179 1 -11.3775 4.39398 -12.2804 0.000601193 1 
1180 1 124.718 1.58635 -12.9139 0.000503577 1 
1181 1 125.863 2.46635 -10.4633 0.000995746 1 
1182 1 123.032 2.62927 -10.8579 0.00102805 1 
1183 1 -11.9647 3.51167 -8.41485 0.00259221 1 
1184 1 124.135 0.696415 -9.03428 0.00229131 1 
1185 1 125.286 1.57544 -6.58925 0.00763409 1 
1186 1 122.465 1.73874 -7.00003 0.0071254 1 
1187 1 123.618 2.63375 -4.56767 0.0264234 1 
1188 1 124.748 0.729546 -2.75075 6.57625 5 
1189 1 121.932 0.843371 -3.14172 0.0600349 1 
1190 1 123.272 1.6158 -0.688806 8.03239 5 
1283 1 121.888 1.74651 -13.312 0.000468074 1 
1284 1 121.309 0.858314 -9.44175 0.00321618 1 
1776 1 -0.22766 20.5286 -13.1647 0.000524681 1 
1777 1 -0.838464 19.6609 -9.22649 0.00205877 1 
1778 1 -1.45658 18.807 -5.20338 0.074549 1 
1779 1 -0.390081 19.7801 -2.65822 6.932 2 
1780 1 -0.3942 17.0103 -3.2538 0.314127 1 
1781 1 -2.24955 18.1958 -0.989494 9.55713 5 
1791 1 -0.300432 17.7465 -13.8144 0.000383431 1 
1792 1 -3.12655 17.8953 -14.2101 0.000312438 1 
1793 1 -1.98294 18.7805 -11.7216 0.000618075 1 
1794 1 -2.05437 15.9996 -12.3757 0.000726098 1 
1795 1 -0.916149 16.89 -9.88357 0.00231168 1 
1796 1 -3.73424 17.0393 -10.2712 0.00152833 1 
1797 1 -2.58934 17.9252 -7.75652 0.00679152 1 
1798 1 -2.66422 15.1646 -8.43344 0.0139202 1 
1799 1 -1.53815 16.0775 -5.8739 0.0533299 1 
1800 1 -4.3385 16.2095 -6.2854 0.0409073 1 
1801 1 -3.22001 17.17 -3.66182 0.23832 1 
1802 1 -3.27632 14.3469 -4.47823 0.17586 1 
1803 1 -2.1226 15.3035 -1.9026 7.17748 5 
1804 1 -4.98025 15.4398 -2.38072 4.95618 5 
1805 1 -3.86382 13.3708 -0.988545 8.74057 5 
1833 1 -3.19429 15.1097 -14.859 0.000351639 1 
1835 1 -4.87862 16.1484 -12.7677 0.00063586 1 
1836 1 -4.94613 13.3612 -13.4257 0.000876936 1 
1837 1 -3.80538 14.2582 -10.9389 0.00291306 1 
1838 1 -6.6322 14.4041 -11.3313 0.00190134 1 
1839 1 -5.48579 15.3055 -8.82857 0.008325 1 
1840 1 -5.56064 12.5108 -9.52579 0.00524599 1 
1841 1 -4.41704 13.4285 -7.03928 0.0332617 1 
1842 1 -7.25533 13.5572 -7.42556 0.0107133 1 
1843 1 -6.09521 14.4616 -4.92023 0.0507602 1 
1844 1 -6.16606 11.6466 -5.69874 0.029664 1 
1845 1 -4.99226 12.4836 -3.26991 0.495965 1 
1846 1 -7.84498 12.7126 -3.59606 0.131419 1 
1847 1 -6.67765 13.5521 -1.19304 8.12426 5 
1848 1 -6.62056 10.6949 -1.97413 0.368169 1 
1898 1 -7.77431 13.5096 -13.8192 0.000602763 1 
1899 1 -7.83719 10.7162 -14.4757 0.000442072 1 
1900 1 -6.69952 11.6103 -12.0024 0.00125115 1 
1901 1 -9.52982 11.7588 -12.391 0.0008354 1 
1902 1 -8.39403 12.6552 -9.91031 0.00216607 1 
1903 1 -8.45274 9.85592 -10.5854 0.00277096 1 
1904 1 -7.31983 10.753 -8.12489 0.0121539 1 
1905 1 -10.1583 10.9072 -8.48909 0.0117977 1 
1906 1 -9.03471 11.8057 -6.00729 0.0847957 1 
1907 1 -9.05845 8.97824 -6.75619 0.0206329 1 
1908 1 -7.86162 9.84007 -4.37506 0.0957735 1 
1909 1 -10.7762 10.0111 -4.68479 0.109814 1 
1910 1 -9.49075 10.8821 -2.42285 0.672866 5 
1911 1 -9.60761 8.06526 -2.98867 0.114914 1 
1912 1 -8.44461 8.95752 -0.666298 3.85255 5 
1913 1 -11.2674 9.20926 -1.09188 7.73594 5 
1983 1 -10.667 10.8665 -14.8681 0.00034657 1 
1985 1 -9.5872 8.96105 -13.0513 0.000783514 1 
1986 1 -12.4174 9.11284 -13.4392 0.000665844 1 
1987 1 -11.2848 10.0076 -10.9659 0.00234323 1 
1988 1 -11.3334 7.20261 -11.6318 0.00124141 1 
1989 1 -10.1997 8.09449 -9.18212 0.00415837 1 
1990 1 -13.0345 8.25146 -9.54756 0.0036142 1 
1991 1 -11.9121 9.14335 -7.09444 0.0114872 1 
1992 1 -11.9354 6.3301 -7.77288 0.00397555 1 
1993 1 -10.8043 7.21213 -5.3527 0.0224244 1 
1994 1 -13.6358 7.36937 -5.68408 0.0247184 1 
1995 1 -12.5099 8.23589 -3.2751 4.91227 5 
1996 1 -12.4918 5.42949 -3.89846 0.0349813 1 
1997 1 -11.3545 6.37731 -1.47355 0.747304 1 
1998 1 -14.198 6.51267 -1.8196 5.95238 5 
2090 1 -12.4694 6.31273 -14.0929 0.000432373 1 
2091 1 -15.2992 6.4671 -14.4828 0.000417114 1 
2092 1 -14.1637 7.35744 -12.0131 0.00114536 1 
2093 1 -14.209 4.55318 -12.6688 0.000620707 1 
2094 1 -13.0712 5.44133 -10.2132 0.0015763 1 
2095 1 -15.9012 5.60023 -10.5894 0.00169451 1 
2096 1 -14.768 6.4904 -8.12844 0.0052108 1 
2097 1 121.345 3.68004 -8.79458 0.00401478 1 
2098 1 -13.6479 4.56569 -6.35364 0.00741949 1 
2099 1 -16.4839 4.73784 -6.70083 0.0311811 1 
2100 1 -15.3093 5.61686 -4.25347 0.05715 1 
2101 1 120.813 2.77755 -4.96631 0.0308058 1 
2102 1 -14.1231 3.63078 -2.50471 0.0881393 1 
2103 1 119.186 3.80659 -2.98322 0.211383 1 
2104 1 -15.7463 4.63855 -0.540189 9.40611 5 
2105 1 120.306 1.85812 -1.19795 4.21572 5 
2217 1 -17.0382 4.71005 -13.058 0.000627297 1 
2218 1 119.057 1.90495 -13.7096 0.000494888 1 
2219 1 120.201 2.79234 -11.2481 0.00176397 1 
2220 1 117.373 2.95016 -11.6423 0.00200305 1 
2221 1 118.513 3.84626 -9.1679 0.0132078 1 
2222 1 118.478 1.01967 -9.84794 0.00469996 1 
2223 1 119.638 1.90293 -7.40704 0.0153869 1 
2224 1 116.8 2.05774 -7.81306 0.0259617 1 
2225 1 117.975 2.91961 -5.38778 0.103365 1 
2226 1 117.907 0.126177 -6.01077 0.00885354 1 
2227 1 119.085 0.993215 -3.57536 0.0349472 1 
2228 1 116.234 1.13792 -3.98094 0.0754816 1 
2229 1 117.422 2.05772 -1.6566 4.40433 5 
2230 1 115.531 0.590341 -0.0711244 6.57597 5 
2349 1 116.223 2.06142 -14.1066 0.000537453 1 
2350 1 117.324 0.136705 -12.2971 0.00113071 1 
2351 1 114.486 0.29433 -12.6974 0.000962042 1 
2352 1 115.642 1.17651 -10.251 0.00364338 1 
2353 1 115.073 0.282285 -6.41852 0.00820107 1 
2879 1 -0.671854 25.1999 -7.96165 0.00510484 1 
2880 1 -1.201 24.3355 -4.04493 5.52299 5 
2881 1 1.05012 21.9319 -1.63126 6.4648 5 
2888 1 -1.23624 25.2085 -14.3818 0.000284808 1 
2890 1 -2.98197 23.4529 -12.9348 0.000380136 1 
2891 1 -1.82941 24.3272 -10.4488 0.000865063 1 
2892 1 -1.90477 21.5552 -11.0764 0.000728852 1 
2893 1 -0.750672 22.4314 -8.57783 0.00308643 1 
2894 1 -3.57878 22.5771 -8.98831 0.00195151 1 
2895 1 -2.42868 23.4577 -6.50527 0.0274642 1 
2896 1 -2.50514 20.6816 -7.12113 0.0106098 1 
2897 1 -1.35309 21.5624 -4.66676 3.55037 5 
2898 1 -4.15112 21.7436 -5.01399 1.38977 5 
2899 1 -2.00391 22.4564 -2.14489 8.08406 5 
2900 1 -3.16749 19.977 -3.05626 5.72998 5 
2901 1 -3.78574 21.1203 -0.55118 3.21097 5 
2929 1 -3.05435 20.6755 -13.5673 0.000345043 1 
2930 1 -5.88086 20.8221 -13.9707 0.000327619 1 
2931 1 -4.73012 21.7004 -11.4818 0.000627315 1 
2932 1 -4.8062 18.9268 -12.1184 0.00055406 1 
2933 1 -3.65819 19.8094 -9.62027 0.00126183 1 
2934 1 -6.4775 19.9546 -10.0191 0.00155534 1 
2935 1 -5.31657 20.8401 -7.50519 0.00701534 1 
2936 1 -5.40385 18.0724 -8.15793 0.00294753 1 
2937 1 -4.24408 18.954 -5.6299 0.0689038 1 
2938 1 -7.0653 19.0917 -6.06169 0.0188419 1 
2939 1 -5.9027 20.0174 -3.59135 5.54899 5 
2940 1 -6.04344 17.2498 -4.1591 0.117584 1 
2941 1 -5.02232 18.2773 -1.50934 9.17345 5 
2942 1 -7.77774 18.304 -2.07117 7.33999 5 
2990 1 -5.95273 18.0428 -14.6085 0.000286433 1 
2992 1 -7.63022 19.0715 -12.5196 0.000632951 1 
2993 1 -7.70465 16.294 -13.1652 0.000530556 1 
2994 1 -6.55746 17.1832 -10.6684 0.00112745 1 
2995 1 -9.38457 17.3232 -11.0725 0.000767946 1 
2996 1 -8.23275 18.2096 -8.56839 0.0015422 1 
2997 1 -8.31732 15.4397 -9.23079 0.00291372 1 
2998 1 -7.16536 16.3361 -6.71638 0.0145874 1 
2999 1 -10.0072 16.4605 -7.12855 0.00393827 1 
3000 1 -8.87226 17.3423 -4.62264 0.0433018 1 
3001 1 -8.95375 14.5892 -5.31607 0.0292004 1 
3002 1 -7.81106 15.5158 -2.81592 2.63715 5 
3003 1 -10.6937 15.5938 -3.16654 1.64727 5 
3004 1 -9.53878 13.856 -1.39628 10.2361 5 
3074 1 -10.5323 16.4379 -13.5666 0.000415898 1 
3075 1 -10.603 13.6559 -14.2154 0.0003992 1 
3076 1 -9.4614 14.5463 -11.7278 0.000983505 1 
3077 1 -12.2898 14.6877 -12.1252 0.000657322 1 
3078 1 -11.1487 15.5748 -9.62981 0.00125837 1 
3079 1 -11.2241 12.798 -10.295 0.00152269 1 
3080 1 -10.0921 13.6911 -7.80302 0.00352211 1 
3081 1 -12.9189 13.8277 -8.18072 0.00391954 1 
3082 1 -11.7949 14.7059 -5.66628 0.0188819 1 
3083 1 -11.873 11.9546 -6.36316 0.0507734 1 
3084 1 -10.7724 12.8545 -3.82634 0.501937 5 
3085 1 -13.6146 12.9999 -4.13814 0.322998 1 
3086 1 -12.6465 14.0069 -1.48967 7.94847 5 
3087 1 -12.582 11.0368 -2.58124 7.3119 5 
3088 1 -11.1268 11.9409 -0.539127 10.0855 5 
3176 1 -13.4315 13.8014 -14.6127 0.000311615 1 
3178 1 -12.3585 11.9052 -12.7809 0.000715691 1 
3179 1 -15.1851 12.0501 -13.1722 0.000622573 1 
3180 1 -14.0493 12.939 -10.6816 0.00153603 1 
3181 1 -14.112 10.1545 -11.3476 0.00169834 1 
3182 1 -12.9863 11.0516 -8.8613 0.00736551 1 
3183 1 -15.802 11.1914 -9.23364 0.00433957 1 
3184 1 -14.6841 12.0884 -6.71014 0.0323107 1 
3185 1 -14.7369 9.29753 -7.43433 0.0168332 1 
3186 1 -13.6285 10.1828 -4.97206 0.127184 1 
3187 1 -16.4172 10.3306 -5.23879 0.0823263 1 
3188 1 -15.3057 11.1581 -2.58946 7.26671 5 
3189 1 -15.3007 8.4516 -3.49161 6.29332 5 
3190 1 -15.914 8.69515 -0.509664 10.9195 5 
3298 1 -15.2455 9.26255 -13.8279 0.000576606 1 
3299 1 -18.072 9.41094 -14.2182 0.000463335 1 
3300 1 -16.9347 10.2994 -11.731 0.00112797 1 
3301 1 -16.99 7.50947 -12.3964 0.00110156 1 
3302 1 -15.8589 8.40169 -9.91567 0.00344579 1 
3303 1 -18.6766 8.54838 -10.291 0.00247499 1 
3304 1 -17.5424 9.44103 -7.78327 0.0110866 1 
3305 1 -17.5905 6.64571 -8.48446 0.00297433 1 
3306 1 -16.4476 7.54217 -5.99948 0.0139442 1 
3307 1 -19.2727 7.67741 -6.36668 0.0267086 1 
3308 1 -18.1504 8.58126 -3.87202 5.13615 5 
3309 1 -18.1538 5.80702 -4.56077 0.301009 1 
3310 1 -17.0163 6.74992 -2.10233 7.0331 5 
3311 1 -19.8765 7.09013 -2.26622 8.57829 5 
3312 1 -18.5871 4.82786 -1.07827 9.17804 5 
3431 1 -18.1282 6.61962 -14.8738 0.00041456 1 
3433 1 -19.8151 7.65879 -12.7841 0.000943355 1 
3434 1 116.275 4.86404 -13.449 0.000693865 1 
3435 1 -18.725 5.75498 -10.9718 0.00138263 1 
3436 1 -21.5533 5.90504 -11.3615 0.0014745 1 
3437 1 -20.4076 6.79103 -8.86964 0.00200122 1 
3438 1 115.691 3.996 -9.56477 0.0103396 1 
3439 1 -19.3235 4.89792 -7.0483 0.105381 1 
3440 1 114.016 5.03275 -7.46769 0.0594737 1 
3441 1 -21.0183 5.98744 -4.83942 5.55409 5 
3442 1 115.111 3.07033 -5.78369 0.163957 1 
3443 1 116.319 3.94467 -3.43765 0.846964 5 
3444 1 113.397 4.11389 -3.77148 1.41873 5 
3445 1 114.722 5.06056 -1.58397 9.63014 5 
3446 1 114.539 2.24009 -2.06117 4.60803 5 
3566 1 113.442 5.01612 -13.841 0.000718353 1 
3567 1 113.387 2.2166 -14.5012 0.00054855 1 
3568 1 114.538 3.10509 -12.0367 0.00176075 1 
3569 1 111.699 3.25934 -12.4268 0.00147894 1 
3570 1 112.854 4.14898 -9.95574 0.00597871 1 
3571 1 112.8 1.33588 -10.644 0.00278309 1 
3572 1 113.957 2.21141 -8.20822 0.0154511 1 
3573 1 111.112 2.37603 -8.58331 0.00856213 1 
3574 1 112.264 3.22607 -6.15781 0.0549322 1 
3575 1 112.234 0.438596 -6.80923 0.00622616 1 
3576 1 113.391 1.29544 -4.37679 0.0543423 1 
3577 1 110.557 1.46172 -4.7302 0.0341649 1 
3578 1 111.675 2.34269 -2.33413 2.57218 5 
3579 1 112.752 0.678932 -0.513626 10.0842 5 
3580 1 109.973 0.49125 -1.07991 3.16603 5 
3699 1 110.549 2.37091 -14.8919 0.000552892 1 
3700 1 111.645 0.452633 -13.0901 0.000799006 1 
3701 1 108.803 0.610599 -13.475 0.000821226 1 
3702 1 109.956 1.49598 -11.0248 0.00179482 1 
3703 1 109.394 0.612934 -7.18078 0.00928896 1 
4221 1 -0.578199 30.7878 -6.78684 0.0389828 1 
4222 1 -0.722341 29.7307 -2.46763 11.4503 5 
4229 1 -1.11598 30.785 -13.1426 0.000475407 1 
4230 1 -1.17321 27.993 -13.7601 0.000412284 1 
4231 1 -2.85364 29.0193 -11.701 0.000881105 1 
4232 1 -1.71005 29.8933 -9.23938 0.00257012 1 
4233 1 -1.76499 27.1055 -9.83598 0.000790879 1 
4234 1 -0.621275 27.9854 -7.36225 0.0106505 1 
4235 1 -3.44364 28.1318 -7.77446 0.00580016 1 
4236 1 -2.30107 29.0307 -5.30358 0.420326 1 
4237 1 -2.3675 26.2197 -5.92991 0.0637581 1 
4238 1 -1.2874 27.146 -3.54968 3.05029 5 
4239 1 -4.0704 27.2335 -3.86543 0.216569 1 
4240 1 -3.08328 28.0751 -1.43193 4.68231 5 
4241 1 -2.74501 25.255 -1.91955 5.62883 5 
4267 1 -4.00245 28.1468 -14.1674 0.000375511 1 
4268 1 -4.06524 25.3594 -14.7895 0.000261092 1 
4269 1 -2.91436 26.2327 -12.3132 0.000452892 1 
4270 1 -5.74181 26.383 -12.7234 0.000543903 1 
4271 1 -4.59024 27.2549 -10.2498 0.000991611 1 
4272 1 -4.65747 24.4742 -10.8606 0.00076025 1 
4273 1 -3.50855 25.348 -8.38205 0.0043063 1 
4274 1 -6.32969 25.4922 -8.78801 0.00353542 1 
4275 1 -5.18167 26.3424 -6.29515 0.0401629 1 
4276 1 -5.25387 23.6074 -6.8951 0.0255541 1 
4277 1 -4.02977 24.4517 -4.36 1.02801 5 
4278 1 -6.87209 24.587 -4.72503 0.28796 1 
4279 1 -5.68172 25.5321 -2.28908 1.5697 5 
4280 1 -5.42177 22.7113 -2.68487 2.58125 5 
4281 1 -7.40497 23.9833 -0.726178 6.89228 5 
4329 1 -5.80941 23.6006 -13.3428 0.000404852 1 
4330 1 -8.6366 23.7484 -13.7515 0.000496059 1 
4331 1 -7.48146 24.6205 -11.2713 0.00100014 1 
4332 1 -7.55402 21.8451 -11.8883 0.000707361 1 
4333 1 -6.39908 22.7215 -9.39314 0.00150247 1 
4334 1 -9.2185 22.8635 -9.80757 0.00189522 1 
4335 1 -8.06411 23.7446 -7.30372 0.0164403 1 
4336 1 -8.13462 20.9795 -7.91553 0.00673685 1 
4337 1 -6.97239 21.8891 -5.40403 0.306402 1 
4338 1 -9.78922 22.0001 -5.82642 0.0843129 1 
4339 1 -8.42454 22.8207 -3.15906 1.1478 1 
4340 1 -8.67863 20.1204 -3.98477 0.654317 1 
4341 1 -6.85876 20.9325 -1.19703 9.74416 5 
4342 1 -10.0956 20.9928 -1.8353 3.67111 5 
4408 1 -8.70764 20.9684 -14.376 0.00036154 1 
4409 1 -11.5363 21.1151 -14.7838 0.000395664 1 
4410 1 -10.3794 21.9894 -12.3002 0.000873753 1 
4411 1 -10.4564 19.2147 -12.9265 0.000641728 1 
4412 1 -9.3003 20.0951 -10.4287 0.00174545 1 
4413 1 -12.1267 20.2339 -10.8463 0.00159836 1 
4414 1 -10.9578 21.1121 -8.34168 0.00483507 1 
4415 1 -11.0595 18.345 -8.97757 0.00189674 1 
4416 1 -9.89347 19.229 -6.46544 0.0118941 1 
4417 1 -12.7227 19.3617 -6.88871 0.00871448 1 
4418 1 -11.5171 20.2326 -4.37057 0.0925145 1 
4419 1 -11.6992 17.4711 -5.03649 0.0310579 1 
4420 1 -10.5084 18.3165 -2.53872 2.08946 5 
4421 1 -13.3036 18.4905 -2.94093 1.13596 5 
4422 1 -11.745 16.5914 -0.713016 6.87221 5 
4508 1 -13.2854 19.3578 -13.3366 0.000595911 1 
4509 1 -13.3608 16.5814 -13.9696 0.000368001 1 
4510 1 -12.212 17.4626 -11.4785 0.000772181 1 
4511 1 -15.0403 17.6026 -11.8866 0.000713113 1 
4512 1 -13.8864 18.4802 -9.39255 0.00177489 1 
4513 1 -13.9746 15.7114 -10.0283 0.0010434 1 
4514 1 -12.8354 16.592 -7.52563 0.00286764 1 
4515 1 -15.655 16.7301 -7.93016 0.00220994 1 
4516 1 -14.5202 17.6228 -5.43046 0.0213301 1 
4517 1 -14.6016 14.845 -6.04695 0.0189592 1 
4518 1 -13.4906 15.7474 -3.52284 0.881558 1 
4519 1 -16.2814 15.903 -3.98597 0.521265 1 
4520 1 -14.7005 16.905 -1.2263 7.20996 5 
4521 1 -15.4274 14.1297 -2.06793 10.459 5 
4522 1 -18.0373 14.0558 0.0627443 5.54551 5 
4628 1 -16.1901 16.7256 -14.3732 0.000319474 1 
4630 1 -15.1166 14.829 -12.5233 0.000543608 1 
4631 1 -17.9432 14.9716 -12.9232 0.000403809 1 
4632 1 -16.7986 15.8499 -10.4304 0.00078409 1 
4633 1 -16.8712 13.0785 -11.0724 0.00093726 1 
4634 1 -15.735 13.9625 -8.5669 0.00229279 1 
4635 1 -18.5543 14.099 -8.9692 0.00121031 1 
4636 1 -17.4105 14.9807 -6.45962 0.0129461 1 
4637 1 -17.4856 12.2066 -7.10755 0.0087566 1 
4638 1 -16.3812 13.0777 -4.55606 0.162651 1 
4639 1 -19.1848 13.2196 -5.04191 0.0612095 1 
4640 1 -18.179 14.1241 -2.60705 8.51191 5 
4641 1 -18.0749 11.2928 -3.09161 5.5022 5 
4642 1 -19.7693 11.9933 -0.927641 6.94773 5 
4761 1 -18.0105 12.1945 -13.5659 0.000427181 1 
4762 1 -20.8368 12.3396 -13.9634 0.000300234 1 
4763 1 -19.6948 13.2195 -11.4705 0.000542295 1 
4764 1 -19.7579 10.4429 -12.122 0.000619042 1 
4765 1 -18.6199 11.3269 -9.62235 0.00119507 1 
4766 1 -21.4441 11.4666 -10.0206 0.0007537 1 
4767 1 -20.31 12.3406 -7.51952 0.00286845 1 
4768 1 -20.362 9.57486 -8.17442 0.00574348 1 
4769 1 -19.2328 10.4494 -5.65335 0.0291391 1 
4770 1 -22.062 10.5851 -6.0588 0.0327836 1 
4771 1 -20.8834 11.4808 -3.58213 5.12746 5 
4772 1 -21.002 8.72198 -4.19914 4.82606 5 
4773 1 -18.7354 9.24492 -1.03327 7.90771 5 
4774 1 -21.6396 9.75772 -1.56056 6.17158 5 
4893 1 -20.8991 9.55836 -14.612 0.000346053 1 
4895 1 -22.584 10.5874 -12.5186 0.000516077 1 
4896 1 -22.6437 7.80653 -13.1768 0.000776385 1 
4897 1 -21.4996 8.69187 -10.6832 0.00178008 1 
4898 1 -24.328 8.83705 -11.0777 0.00147688 1 
4899 1 -23.1843 9.71408 -8.57135 0.00419161 1 
4900 1 -23.2347 6.93957 -9.25919 0.00297141 1 
4901 1 -22.0784 7.80925 -6.74893 0.0350046 1 
4902 1 -24.9137 7.96653 -7.14663 0.0204404 1 
4903 1 -23.7453 8.78326 -4.62751 2.12621 5 
4904 1 -23.8115 6.05789 -5.37383 0.67227 5 
4905 1 -22.8525 7.36657 -2.2937 8.32479 5 
4906 1 -25.4447 6.98485 -3.24181 4.83016 5 
4907 1 -25.4684 6.96243 -0.386108 6.57993 5 
4908 1 111.92 4.88859 -1.5109 9.05075 5 
5028 1 -25.4749 7.95375 -13.5705 0.000680164 1 
5029 1 110.607 5.16691 -14.2316 0.000723644 1 
5030 1 111.756 6.05498 -11.7513 0.00157657 1 
5031 1 108.919 6.20348 -12.1389 0.0017803 1 
5032 1 -26.0714 7.08883 -9.64809 0.00450328 1 
5033 1 110.012 4.30109 -10.3423 0.00327409 1 
5034 1 111.173 5.18496 -7.86275 0.0130617 1 
5035 1 108.326 5.33708 -8.24127 0.00698493 1 
5036 1 109.49 6.19668 -5.76018 0.0271712 1 
5037 1 109.43 3.40855 -6.49606 0.0120829 1 
5038 1 110.594 4.25666 -4.06039 0.19196 1 
5039 1 107.77 4.42887 -4.3673 0.0664814 1 
5040 1 109.062 5.18206 -1.8339 7.01164 2 
5041 1 108.881 2.5213 -2.60667 0.385928 1 
5160 1 107.772 5.31621 -14.6209 0.000673754 1 
5162 1 108.859 3.41209 -12.8112 0.00128322 1 
5163 1 106.02 3.56319 -13.1913 0.00118945 1 
5164 1 107.168 4.4522 -10.7171 0.00278769 1 
5165 1 107.111 1.65454 -11.396 0.00192802 1 
5166 1 108.268 2.54064 -8.94451 0.00367687 1 
5167 1 105.419 2.69979 -9.29834 0.00521498 1 
5168 1 106.587 3.58701 -6.83874 0.0139243 1 
5169 1 106.546 0.78306 -7.54658 0.0169577 1 
5170 1 107.721 1.67306 -5.08716 0.0846777 1 
5171 1 104.886 1.85709 -5.4475 0.134447 1 
5172 1 106.073 2.74518 -2.88502 5.59715 5 
5173 1 107.189 0.672247 -1.44832 1.09005 1 
5174 1 104.404 0.847427 -1.86968 6.76142 5 
5293 1 105.963 0.767189 -13.8547 0.00099083 1 
5294 1 103.126 0.92096 -14.2345 0.000920278 1 
5295 1 104.269 1.81045 -11.7637 0.00263226 1 
5296 1 103.682 0.948684 -7.88612 0.038891 1 
5807 1 -136.61 36.3887 -5.59413 0.0145623 1 
5808 1 -137.19 35.5139 -1.64203 3.41786 5 
5814 1 -138.3 35.5097 -14.3463 0.000268028 1 
5815 1 -137.158 36.3926 -11.8936 0.000565987 1 
5816 1 -1.06371 33.5859 -12.5227 0.000461852 1 
5817 1 -2.74894 34.6239 -10.4664 0.000779437 1 
5818 1 -137.747 35.4961 -8.01796 0.00424588 1 
5819 1 -1.65459 32.6975 -8.63614 0.00308833 1 
5820 1 -0.504003 33.5583 -6.16956 0.0326015 1 
5821 1 -3.31248 33.7152 -6.57292 0.0128575 1 
5822 1 -138.322 34.6255 -4.13752 0.0406538 1 
5823 1 -2.20266 31.7614 -4.71355 0.365959 1 
5824 1 -1.04033 32.6852 -2.38334 5.68015 5 
5825 1 -3.85129 32.8099 -2.7122 0.0592007 1 
5826 1 -2.78033 30.8527 -0.882706 4.44972 5 
5850 1 -2.20774 32.7076 -14.9787 0.000227505 1 
5852 1 -3.89376 33.744 -12.9184 0.000369076 1 
5853 1 -3.94527 30.9416 -13.5458 0.000389439 1 
5854 1 -2.79912 31.8174 -11.0882 0.000704485 1 
5855 1 -5.62558 31.9747 -11.49 0.000835566 1 
5856 1 -4.47512 32.8534 -9.0367 0.00206497 1 
5857 1 -4.53337 30.0451 -9.65024 0.00275648 1 
5858 1 -3.39091 30.9244 -7.19996 0.0150816 1 
5859 1 -6.20559 31.0737 -7.61017 0.00410393 1 
5860 1 -5.04007 31.9508 -5.1636 0.00786428 1 
5861 1 -5.12965 29.1396 -5.74706 0.0184002 1 
5862 1 -3.91812 30.0111 -3.29958 0.420514 1 
5863 1 -6.78313 30.1911 -3.75266 0.0630946 1 
5864 1 -5.60037 31.0541 -1.3288 1.61323 5 
5865 1 -5.85105 28.3093 -1.8601 2.79364 5 
5909 1 -6.77474 31.0979 -13.948 0.000399949 1 
5910 1 -6.83195 28.3003 -14.5736 0.000369421 1 
5911 1 -5.68086 29.1731 -12.1093 0.000858731 1 
5912 1 -8.50863 29.3275 -12.517 0.000787733 1 
5913 1 -7.35609 30.1985 -10.0588 0.00211918 1 
5914 1 -7.41506 27.4036 -10.6646 0.00139352 1 
5915 1 -6.26524 28.2662 -8.19603 0.0058384 1 
5916 1 -9.08402 28.4179 -8.61435 0.00671055 1 
5917 1 -7.94348 29.2933 -6.16893 0.0136969 1 
5918 1 -7.9897 26.4866 -6.70952 0.0354724 1 
5919 1 -6.88377 27.3703 -4.26001 0.105973 1 
5920 1 -9.68781 27.5281 -4.70948 0.0723293 1 
5921 1 -8.63377 28.5234 -2.32517 1.93106 5 
5922 1 -8.61073 25.6922 -2.68768 0.6645 1 
5923 1 -10.704 26.96 -0.793918 10.3563 5 
5985 1 -9.66271 28.454 -14.9789 0.000356733 1 
5987 1 -8.56966 26.5335 -13.1338 0.000653688 1 
5988 1 -11.4 26.6855 -13.5442 0.000658748 1 
5989 1 -10.241 27.5555 -11.08 0.00140612 1 
5990 1 -10.3068 24.7677 -11.687 0.00121231 1 
5991 1 -9.14773 25.6375 -9.20756 0.00330351 1 
5992 1 -11.9727 25.786 -9.63668 0.00274451 1 
5993 1 -10.8053 26.6405 -7.15503 0.0263186 1 
5994 1 -10.8775 23.8787 -7.74173 0.0086163 1 
5995 1 -9.68547 24.7248 -5.18591 0.156584 1 
5996 1 -12.5198 24.8784 -5.7003 0.0566455 1 
5997 1 -11.4292 25.7972 -3.22507 0.275616 1 
5998 1 -11.3709 22.9703 -3.73451 0.214538 1 
5999 1 -10.2803 23.9016 -1.27977 6.67471 5 
6000 1 -13.1201 24.0375 -1.818 5.72377 5 
6084 1 -11.466 23.8972 -14.1619 0.000549382 1 
6085 1 -14.2992 24.0479 -14.572 0.000520795 1 
6086 1 -13.1378 24.9174 -12.1051 0.0011648 1 
6087 1 -13.2094 22.1347 -12.7162 0.000919242 1 
6088 1 -12.0444 23.0053 -10.234 0.00216798 1 
6089 1 -14.8796 23.1516 -10.6622 0.00186834 1 
6090 1 -13.7069 24.019 -8.19128 0.00539827 1 
6091 1 -13.7914 21.2471 -8.78089 0.00295912 1 
6092 1 -12.6152 22.1167 -6.28223 0.0128835 1 
6093 1 -15.4556 22.2565 -6.73912 0.0120368 1 
6094 1 -14.2552 23.1343 -4.27303 0.0442226 1 
6095 1 -14.3743 20.3643 -4.81351 0.0419536 1 
6096 1 -13.1343 21.229 -2.35547 2.75976 5 
6097 1 -16.0457 21.4525 -2.84294 2.67107 5 
6098 1 -15.3302 19.7543 -0.798045 5.70361 5 
6204 1 -16.0442 22.2831 -13.1305 0.000807064 1 
6205 1 -16.1172 19.5029 -13.7465 0.0005203 1 
6206 1 -14.959 20.3749 -11.2666 0.00127246 1 
6207 1 -17.7942 20.521 -11.6812 0.00107515 1 
6208 1 -16.6305 21.3905 -9.21099 0.00266327 1 
6209 1 -16.7165 18.6195 -9.80873 0.00149735 1 
6210 1 -15.5559 19.4978 -7.31923 0.00508475 1 
6211 1 -18.3894 19.6402 -7.74223 0.00418985 1 
6212 1 -17.2161 20.5075 -5.25161 0.0655011 1 
6213 1 -17.3346 17.7719 -5.83879 0.020459 1 
6214 1 -16.1512 18.6582 -3.28043 0.718876 1 
6215 1 -18.9841 18.8061 -3.69929 0.567827 1 
6216 1 -18.1037 19.9948 -1.25736 7.50488 5 
6217 1 -17.6502 16.8954 -1.78171 9.50283 5 
6335 1 -18.9502 19.6515 -14.1534 0.00045516 1 
6336 1 -19.0199 16.8721 -14.7765 0.000269924 1 
6337 1 -17.8702 17.7457 -12.2942 0.000591613 1 
6338 1 -20.7004 17.8927 -12.7004 0.000498659 1 
6339 1 -19.548 18.7639 -10.2203 0.0011663 1 
6340 1 -19.6243 15.9919 -10.8351 0.000650077 1 
6341 1 -18.476 16.8698 -8.33936 0.00222052 1 
6342 1 -21.3029 17.0117 -8.75192 0.00175727 1 
6343 1 -20.1493 17.9019 -6.25604 0.0113801 1 
6344 1 -20.2386 15.1224 -6.8777 0.00608431 1 
6345 1 -19.0771 16.033 -4.39422 0.192324 1 
6346 1 -21.902 16.1443 -4.80188 0.0682219 1 
6347 1 -20.5636 17.0094 -2.28091 7.41339 5 
6348 1 -20.9306 14.2338 -3.01026 2.69497 5 
6349 1 -23.5486 15.077 -0.751942 5.8703 5 
6470 1 -20.7704 15.1166 -13.3252 0.000323959 1 
6471 1 -23.5981 15.2637 -13.7291 0.000289536 1 
6472 1 -22.4513 16.1365 -11.2422 0.000602588 1 
6473 1 -22.5205 13.3627 -11.8724 0.000434963 1 
6474 1 -21.3797 14.2388 -9.37527 0.000916515 1 
6475 1 -24.2048 14.3799 -9.78186 0.00099762 1 
6476 1 -23.0692 15.255 -7.28605 0.00585912 1 
6477 1 -23.1366 12.4812 -7.91627 0.00353583 1 
6478 1 -22.0198 13.35 -5.436 0.0495836 1 
6479 1 -24.8329 13.4747 -5.79673 0.0626632 1 
6480 1 -23.7362 14.3628 -3.37903 1.66188 5 
6481 1 -23.6888 11.547 -3.87551 1.36235 5 
6482 1 -22.5831 12.4573 -1.36722 6.12437 5 
6483 1 -25.4095 12.7506 -1.77335 6.58645 5 
6602 1 -23.6643 12.4858 -14.3635 0.00024484 1 
6603 1 -26.4924 12.6326 -14.7655 0.000225636 1 
6604 1 -25.3466 13.5071 -12.2766 0.000447432 1 
6605 1 -25.4117 10.7323 -12.9171 0.000493669 1 
6606 1 -24.2688 11.6091 -10.4193 0.000974281 1 
6607 1 -27.0934 11.7515 -10.8211 0.00109371 1 
6608 1 -25.9539 12.6223 -8.31336 0.0035908 1 
6609 1 -26.0101 9.86026 -8.9648 0.00445378 1 
6610 1 -24.8715 10.7273 -6.43911 0.0312653 1 
6611 1 -27.6807 10.8659 -6.83031 0.0160538 1 
6612 1 -26.4998 11.7208 -4.25293 0.464484 1 
6613 1 -26.5304 8.95634 -4.96576 0.304309 1 
6614 1 -24.9429 9.67729 -2.25226 11.1401 5 
6615 1 -27.9546 9.88776 -2.79186 7.4836 5 
6616 1 -28.2295 7.44607 -0.851664 6.91046 5 
6736 1 -28.2401 10.8768 -13.3174 0.000471067 1 
6737 1 -28.3064 8.09992 -13.9644 0.000606811 1 
6738 1 -27.1583 8.98169 -11.4713 0.00149385 1 
6739 1 -29.9885 9.12341 -11.8669 0.00125241 1 
6740 1 -28.8353 9.99778 -9.35985 0.00338587 1 
6741 1 -28.9064 7.23549 -10.0278 0.00569629 1 
6742 1 -27.7414 8.11513 -7.50984 0.0268803 1 
6743 1 -30.5827 8.24877 -7.90017 0.0147477 1 
6744 1 -29.3778 9.09997 -5.36456 0.121578 1 
6745 1 106.646 6.35243 -6.10652 0.0191145 1 
6746 1 -28.2943 7.16343 -3.61945 2.85094 5 
6747 1 104.959 7.32355 -3.97596 1.52648 5 
6748 1 -30.9208 7.91556 -1.27505 6.52217 5 
6749 1 106.171 5.44671 -2.09551 6.70529 5 
6750 1 104.468 4.22209 0.0235452 4.45892 5 
6869 1 -31.1369 8.24494 -14.3605 0.000466283 1 
6871 1 106.085 6.34951 -12.5242 0.00158009 1 
6872 1 103.253 6.49268 -12.9147 0.000991765 1 
6873 1 104.4 7.37391 -10.416 0.0034905 1 
6874 1 104.329 4.59952 -11.0886 0.00253476 1 
6875 1 105.48 5.48683 -8.60155 0.00690448 1 
6876 1 102.637 5.62586 -8.9674 0.00593204 1 
6877 1 103.788 6.49555 -6.4612 0.0162983 1 
6878 1 103.729 3.74387 -7.17038 0.0182994 1 