ITEM: TIMESTEP
0
ITEM: NUMBER OF ATOMS
4916
ITEM: BOX BOUNDS xy xz yz pp pp ss
-1.9977231868000001e+01 6.8969014782000002e+01 -1.9977231868000001e+01
0.0000000000000000e+00 4.0025182159000003e+01 0.0000000000000000e+00
-1.3153734832714215e+02 1.4656135202576104e+02 0.0000000000000000e+00
ITEM: ATOMS id type x y z c_csym c_cna 
13 1 67.6186 0.127007 -14.4626 3.17286e-05 1 
14 1 67.8533 1.06611 -11.7716 0.00010872 1 
15 1 -0.161566 3.59228 -12.7285 0.000120563 1 
16 1 0.0770286 4.53524 -10.0304 0.0017607 1 
17 1 -0.883566 2.0072 -9.08264 0.00069623 1 
18 1 -0.648554 2.9462 -6.39757 0.0112867 1 
19 1 67.3388 0.431587 -5.41275 0.0350665 1 
20 1 67.4638 1.41878 -2.67427 0.534107 1 
21 1 -0.400872 3.88205 -3.74879 0.209161 1 
22 1 -0.110759 4.88332 -1.24406 10.9002 5 
232 1 0.0775144 16.0033 -14.0182 4.8505e-05 1 
240 1 -1.7065 5.07567 -14.6277 2.99142e-05 1 
242 1 -3.01305 7.49923 -13.8296 4.89573e-05 1 
243 1 -2.06209 10.0213 -14.7893 3.98553e-05 1 
244 1 -0.515567 8.53938 -12.8906 8.10125e-05 1 
245 1 -1.82075 10.9622 -12.0888 0.000147761 1 
246 1 -0.871995 13.4824 -13.0513 0.00017729 1 
247 1 -0.629707 14.4216 -10.3445 0.00156684 1 
248 1 63.8131 1.50884 -14.6082 2.21908e-05 1 
249 1 65.3577 0.0240571 -12.7105 5.50292e-05 1 
250 1 66.3103 2.55083 -13.6696 4.19817e-05 1 
251 1 64.0503 2.44952 -11.9168 7.9068e-05 1 
252 1 65.0037 4.97581 -12.873 5.95462e-05 1 
253 1 66.5478 3.49244 -10.9783 0.000239123 1 
254 1 -1.46682 6.0169 -11.9322 0.000153861 1 
255 1 65.2448 5.92045 -10.179 0.000285899 1 
256 1 -2.77058 8.44196 -11.131 0.000203815 1 
257 1 -1.22224 6.95842 -9.23413 0.00134577 1 
258 1 -0.271655 9.47993 -10.1912 0.000369333 1 
259 1 -2.51952 9.3866 -8.42961 0.00169718 1 
260 1 -1.57369 11.9038 -9.38372 0.000604207 1 
261 1 -0.0166336 10.4185 -7.48767 0.00296342 1 
262 1 -1.31579 12.8435 -6.67035 0.00288658 1 
263 1 -0.381122 15.3613 -7.6221 0.017078 1 
264 1 -0.136312 16.3037 -4.87656 0.416442 1 
265 1 43.1209 39.9463 -10.9582 0.000129867 1 
266 1 65.5914 0.964634 -10.0205 0.000181436 1 
267 1 63.3324 0.863305 -8.26677 0.000887066 1 
268 1 64.2876 3.39278 -9.22805 0.000548211 1 
269 1 65.8229 1.90843 -7.33108 0.00170053 1 
270 1 -2.1802 4.43636 -8.28996 0.00248631 1 
271 1 64.523 4.34094 -6.54999 0.00772875 1 
272 1 65.4911 6.87133 -7.48389 0.00240879 1 
273 1 -1.93359 5.38674 -5.61268 0.0254019 1 
274 1 -0.969544 7.89746 -6.5323 0.0177134 1 
275 1 -3.2129 7.82914 -4.77209 0.0278929 1 
276 1 -2.23989 10.3185 -5.71937 0.0112778 1 
277 1 -0.654823 8.81967 -3.79603 0.49126 5 
278 1 -1.94817 11.2521 -3.05685 0.153015 1 
279 1 -1.05725 13.7945 -3.94613 0.0517931 1 
280 1 -0.746547 14.8002 -1.33094 4.05468 5 
281 1 -0.153602 17.6273 -1.82114 12.9673 5 
282 1 63.561 1.81816 -5.57589 0.0146568 1 
283 1 65.0771 0.352011 -3.68049 0.237636 1 
284 1 66.0561 2.86973 -4.6518 0.0322204 1 
285 1 63.747 2.83621 -2.93531 0.834171 5 
286 1 64.784 5.30323 -3.91338 0.098794 1 
287 1 66.291 3.87541 -1.96318 6.79581 5 
288 1 -1.63752 6.37184 -2.9195 0.546937 5 
289 1 65.0574 6.26826 -1.34565 10.7649 5 
290 1 -2.87038 8.79824 -2.03574 0.284534 1 
291 1 -1.28119 7.21703 -0.192215 5.55983 5 
292 1 -0.322843 9.68091 -1.048 5.97902 5 
293 1 62.9184 0.233349 -1.92826 8.05485 5 
294 1 65.0608 1.65742 -0.961731 8.2541 5 
838 1 -0.635396 25.8856 -14.3628 3.3288e-05 1 
858 1 -2.41851 14.9624 -14.9555 3.17705e-05 1 
860 1 -3.72627 17.3803 -14.1626 5.16158e-05 1 
862 1 -1.22949 18.4211 -13.2234 5.29581e-05 1 
863 1 -0.278186 20.9443 -14.1876 3.62084e-05 1 
864 1 -2.53764 20.8385 -12.4307 7.65579e-05 1 
865 1 -1.5864 23.3612 -13.3966 5.86182e-05 1 
866 1 -0.0400245 21.8786 -11.4877 0.000265298 1 
867 1 -1.34955 24.2921 -10.7013 0.000418079 1 
868 1 -0.399119 26.8189 -11.6706 0.000123438 1 
869 1 -0.167508 27.7509 -8.98158 0.000825989 1 
878 1 63.4579 6.45728 -14.7693 3.03814e-05 1 
880 1 62.1513 8.87864 -13.9705 5.75689e-05 1 
881 1 63.103 11.3998 -14.9319 2.71415e-05 1 
882 1 -4.31873 9.92135 -13.0294 0.000110243 1 
883 1 -3.36842 12.4417 -13.991 4.52532e-05 1 
884 1 -5.62544 12.3398 -12.2322 9.75389e-05 1 
885 1 -4.67575 14.86 -13.1947 0.000202382 1 
886 1 -3.12641 13.382 -11.2885 0.000153761 1 
887 1 -2.17934 15.8996 -12.2547 0.000193465 1 
888 1 -4.4365 15.7993 -10.4891 0.00225488 1 
889 1 -3.48932 18.3145 -11.4661 0.0006159 1 
890 1 -1.94032 16.8327 -9.55054 0.00205954 1 
891 1 -0.9911 19.3547 -10.5265 0.000550194 1 
892 1 -3.25741 19.2415 -8.7803 0.0111305 1 
893 1 -2.30079 21.7715 -9.73155 0.00133369 1 
894 1 -0.75179 20.2842 -7.8349 0.00749433 1 
895 1 -2.06649 22.6981 -7.01936 0.0215248 1 
896 1 -1.11671 25.2143 -8.00686 0.00391137 1 
897 1 -0.897494 26.1245 -5.31685 0.0476385 1 
898 1 0.0506567 28.6865 -6.29089 0.0077388 1 
900 1 59.0566 0.365276 -13.79 4.3335e-05 1 
901 1 60.0079 2.89031 -14.7489 2.31314e-05 1 
902 1 61.5537 1.40691 -12.8534 4.01247e-05 1 
903 1 62.5056 3.93293 -13.8118 3.59227e-05 1 
904 1 60.2469 3.83139 -12.0549 6.69462e-05 1 
905 1 61.199 6.35634 -13.0121 7.5912e-05 1 
906 1 62.7451 4.87587 -11.1193 0.000177424 1 
907 1 63.6984 7.40035 -12.0725 0.000110442 1 
908 1 61.4407 7.30162 -10.3157 0.000340608 1 
909 1 62.3929 9.82163 -11.2711 0.00021179 1 
910 1 63.9433 8.34752 -9.37386 0.000614746 1 
911 1 -4.07371 10.8647 -10.3265 0.000714066 1 
912 1 62.6394 10.7672 -8.57016 0.00129237 1 
913 1 -5.38286 13.2793 -9.53278 0.00113185 1 
914 1 -3.81588 11.8083 -7.61551 0.0070158 1 
915 1 -2.88019 14.3226 -8.58288 0.00177272 1 
916 1 -5.145 14.2177 -6.84942 0.0198208 1 
917 1 -4.20185 16.7438 -7.76897 0.0304486 1 
918 1 -2.62895 15.2604 -5.87848 0.0310495 1 
919 1 -1.70749 17.7582 -6.84392 0.0165704 1 
920 1 -3.99793 17.6778 -5.01454 0.467402 1 
921 1 -3.03306 20.145 -6.13925 0.172291 1 
922 1 -1.49727 18.6992 -4.13417 6.04868 5 
923 1 -0.514731 21.2164 -5.14724 0.0481158 1 
924 1 -2.79918 21.1031 -3.58615 10.7343 5 
925 1 -1.82071 23.6474 -4.30676 0.196836 1 
926 1 -0.298201 22.1243 -2.42225 4.3213 5 
927 1 -1.54039 24.4906 -1.3326 9.40121 5 
928 1 -0.745195 27.0676 -2.68599 11.1105 5 
929 1 59.2964 1.30595 -11.0964 0.000162956 1 
930 1 61.7924 2.34825 -10.1613 0.000182607 1 
931 1 59.5417 2.2466 -8.39895 0.00110367 1 
932 1 60.4891 4.77405 -9.3627 0.000520456 1 
933 1 62.0298 3.29321 -7.46845 0.00225829 1 
934 1 62.9869 5.82412 -8.42995 0.00132247 1 
935 1 60.7357 5.72339 -6.6756 0.00638781 1 
936 1 61.6867 8.25407 -7.61651 0.00259265 1 
937 1 63.2367 6.78422 -5.74617 0.00880554 1 
938 1 64.2037 9.30036 -6.67137 0.00383035 1 
939 1 61.9582 9.21579 -4.91538 0.0173982 1 
940 1 62.8967 11.7154 -5.87533 0.0108265 1 
941 1 -4.47127 10.2562 -3.96353 0.0185258 1 
942 1 -3.54016 12.7642 -4.89689 0.074299 1 
943 1 -5.77825 12.6633 -3.21791 0.149583 1 
944 1 -4.94001 15.1507 -4.23211 0.373931 1 
945 1 -3.26571 13.766 -2.13735 1.72783 5 
946 1 -2.40125 16.2664 -3.16518 1.06778 1 
947 1 -4.8203 16.2248 -1.80582 9.6642 5 
948 1 -3.75781 18.9742 -2.0253 9.15193 5 
949 1 -2.68783 16.7905 -0.421827 4.9819 5 
950 1 -1.56961 19.2921 0.00640809 6.57288 5 
951 1 -2.68153 21.6579 -1.04809 10.3932 5 
952 1 61.0811 0.756912 -6.50592 0.00821854 1 
953 1 58.8573 0.653553 -4.72607 0.129048 1 
954 1 59.7939 3.19013 -5.68827 0.0127692 1 
955 1 61.3211 1.70871 -3.8031 0.130322 1 
956 1 62.2573 4.26527 -4.77783 0.0408174 1 
957 1 60.0813 4.13726 -2.92291 0.179135 1 
958 1 60.989 6.67558 -4.00052 0.0536222 1 
959 1 62.5458 5.22937 -2.06269 6.1071 5 
960 1 63.5194 7.75195 -3.06477 0.0491861 1 
961 1 61.2979 7.65995 -1.39838 6.55705 5 
962 1 62.2919 10.2106 -2.229 0.405136 1 
963 1 63.8514 8.72427 -0.341565 3.48383 5 
964 1 -4.16619 11.1961 -1.21026 3.69448 5 
965 1 -5.57064 13.6618 -0.611164 12.8061 5 
966 1 59.2398 1.57679 -1.93351 2.39581 5 
967 1 61.7146 2.6699 -0.971484 6.37907 5 
45954 2 0.0435132 31.099 1.80489 6.64541 5 
45937 2 3.92299 38.5321 3.59307 2.55351 5 
1831 1 -1.35233 35.7815 -14.7054 4.63545e-05 1 
1833 1 -0.163282 39.2485 -12.9711 0.000133967 1 
1865 1 -4.44181 27.2671 -14.5092 2.62404e-05 1 
1867 1 -1.9448 28.306 -13.573 3.29171e-05 1 
1868 1 -0.993992 30.832 -14.537 2.73613e-05 1 
1869 1 -3.25412 30.7289 -12.7813 5.31974e-05 1 
1870 1 -2.3036 33.2552 -13.7446 5.84106e-05 1 
1871 1 -0.757735 31.7689 -11.8479 0.000103967 1 
1872 1 -2.06736 34.1947 -11.0566 0.000257104 1 
1873 1 -1.11589 36.7224 -12.0154 0.000184085 1 
1874 1 -0.879638 37.6671 -9.32829 0.000844127 1 
1897 1 -7.53248 18.7588 -14.3127 5.5232e-05 1 
1899 1 -5.03539 19.7988 -13.3724 6.15549e-05 1 
1900 1 -4.084 22.3223 -14.3362 2.29474e-05 1 
1901 1 -6.34508 22.2197 -12.5818 5.27568e-05 1 
1902 1 -5.39294 24.7427 -13.5453 4.87918e-05 1 
1903 1 -3.84697 23.2563 -11.641 0.000142576 1 
1904 1 -2.89545 25.78 -12.6079 8.60479e-05 1 
1905 1 -5.15535 25.6764 -10.8531 0.000370163 1 
1906 1 -4.20403 28.2024 -11.8173 9.45425e-05 1 
1907 1 -2.6582 26.7105 -9.91774 0.000540058 1 
1908 1 -1.70878 29.2411 -10.8831 0.000122967 1 
1909 1 -3.96478 29.1365 -9.12715 0.00043001 1 
1910 1 -3.01707 31.6665 -10.0916 0.00022704 1 
1911 1 -1.47486 30.1781 -8.19457 0.000889803 1 
1912 1 -0.522533 32.7077 -9.16311 0.000626509 1 
1913 1 -2.78081 32.6075 -7.40285 0.00209851 1 
1914 1 -1.83164 35.138 -8.3739 0.00129731 1 
1915 1 -0.288517 33.6495 -6.48841 0.00660317 1 
1916 1 -1.59216 36.0903 -5.698 0.00731741 1 
1917 1 -0.635944 38.6178 -6.64341 0.00443539 1 
1918 1 -0.351861 39.5633 -3.94896 0.0186024 1 
1929 1 59.653 7.83535 -14.91 4.07757e-05 1 
1931 1 58.346 10.2535 -14.1136 6.52882e-05 1 
1933 1 60.8441 11.297 -13.1736 8.66e-05 1 
1934 1 61.7955 13.8179 -14.1381 4.46913e-05 1 
1935 1 59.535 13.7126 -12.3826 0.000151991 1 
1936 1 60.4858 16.2356 -13.348 7.74851e-05 1 
1937 1 -6.93539 14.7561 -11.4406 0.00028325 1 
1938 1 -5.98597 17.2763 -12.4053 0.000257261 1 
1939 1 -8.25027 17.1738 -10.6534 0.000439442 1 
1940 1 -7.29807 19.6952 -11.6201 0.000291141 1 
1941 1 -5.75426 18.2115 -9.70789 0.00222141 1 
1942 1 -4.8008 20.7334 -10.6798 0.000425762 1 
1943 1 -7.07 20.6312 -8.93381 0.00279392 1 
1944 1 -6.1099 23.157 -9.88705 0.000651479 1 
1945 1 -4.57145 21.6674 -7.99299 0.00595645 1 
1946 1 -3.60967 24.186 -8.9436 0.00140771 1 
1947 1 -5.87104 24.0933 -7.18293 0.00954639 1 
1948 1 -4.91592 26.604 -8.16702 0.00515793 1 
1949 1 -3.37024 25.1129 -6.24018 0.0152914 1 
1950 1 -2.41864 27.6366 -7.23284 0.00529958 1 
1951 1 -4.65947 27.5079 -5.50385 0.085688 1 
1952 1 -3.72295 30.0716 -6.43817 0.00516309 1 
1953 1 -2.1898 28.5721 -4.55669 0.0443359 1 
1954 1 -1.24182 31.1246 -5.50687 0.016064 1 
1955 1 -3.46818 31.039 -3.76087 0.115987 1 
1956 1 -2.55091 33.5766 -4.7193 0.0335278 1 
1957 1 -1.04795 32.1423 -2.86809 0.646342 1 
1958 1 -0.0226395 34.6053 -3.85206 0.0944451 1 
1959 1 -2.27149 34.5397 -2.02071 6.281 5 
1960 1 -1.32111 37.0402 -3.02276 0.037687 1 
1961 1 -1.05129 37.9298 -0.320707 3.5101 5 
1964 1 55.251 1.74725 -13.9271 7.83281e-05 1 
1965 1 56.2031 4.26964 -14.8872 4.39162e-05 1 
1966 1 57.7489 2.78897 -12.9902 6.68417e-05 1 
1967 1 58.7006 5.31242 -13.9499 4.41519e-05 1 
1968 1 56.4414 5.20981 -12.1887 0.000219752 1 
1969 1 57.3938 7.73195 -13.1502 9.75955e-05 1 
1970 1 58.9405 6.25392 -11.2533 0.000161237 1 
1971 1 59.8923 8.77684 -12.2111 0.000162085 1 
1972 1 57.6336 8.67246 -10.4488 0.000659493 1 
1973 1 58.5845 11.1926 -11.4127 0.000352949 1 
1974 1 60.1341 9.72156 -9.50984 0.000609183 1 
1975 1 61.0831 12.2373 -10.474 0.000475423 1 
1976 1 58.8219 12.1333 -8.7057 0.00259548 1 
1977 1 59.7681 14.6492 -9.68904 0.00116307 1 
1978 1 61.3182 13.178 -7.77584 0.00372854 1 
1979 1 -6.70293 15.6958 -8.74812 0.00320901 1 
1980 1 59.9865 15.5838 -7.00742 0.0123172 1 
1981 1 -8.02972 18.1191 -7.95722 0.00510973 1 
1982 1 -6.49717 16.6448 -6.07135 0.0396785 1 
1983 1 -5.53668 19.1482 -7.01111 0.017333 1 
1984 1 -7.8321 19.0883 -5.25039 0.122943 1 
1985 1 -6.85574 21.5645 -6.26752 0.0409222 1 
1986 1 -5.30279 20.107 -4.32747 6.56223 5 
1987 1 -4.34094 22.605 -5.30931 0.0365277 1 
1988 1 -6.60701 22.4865 -3.64644 7.15096 5 
1989 1 -5.61566 25.0277 -4.46688 0.153347 1 
1990 1 -4.08205 23.5487 -2.5769 3.25612 5 
1991 1 -3.14381 25.9947 -3.47425 3.36939 5 
1992 1 -5.31879 26.0602 -1.48351 9.36959 5 
1993 1 -4.42346 28.4516 -2.9203 10.1622 5 
1994 1 -3.8608 28.3107 -0.340817 12.439 5 
1995 1 -1.97311 29.5535 -1.83228 9.1622 5 
1996 1 -3.10911 32.0201 -0.953527 7.05987 5 
1997 1 56.7976 0.265203 -12.0338 0.000172169 1 
1998 1 54.5371 0.167857 -10.2784 0.000635743 1 
1999 1 55.4901 2.68975 -11.2286 0.000313195 1 
2000 1 57.0421 1.20751 -9.33888 0.00108018 1 
2001 1 57.9905 3.72955 -10.294 0.000259359 1 
2002 1 55.734 3.63245 -8.52755 0.00213234 1 
2003 1 56.6821 6.14817 -9.49067 0.00228178 1 
2004 1 58.2416 4.66712 -7.59866 0.0019655 1 
2005 1 59.1853 7.19808 -8.55878 0.000933773 1 
2006 1 56.9348 7.07665 -6.80226 0.0206566 1 
2007 1 57.8799 9.61716 -7.74224 0.00809072 1 
2008 1 59.4256 8.14688 -5.86354 0.0135503 1 
2009 1 60.3784 10.6699 -6.80343 0.0044568 1 
2010 1 58.1327 10.5754 -5.01116 0.107443 1 
2011 1 59.0568 13.0804 -5.98331 0.0247437 1 
2012 1 60.6307 11.6381 -4.1012 0.0626288 1 
2013 1 61.5372 14.1205 -5.08103 0.0410132 1 
2014 1 59.2546 14.0346 -3.21644 1.18382 5 
2015 1 60.1797 16.5167 -4.37135 0.171013 1 
2016 1 -7.25624 15.1083 -2.39312 3.73312 5 
2017 1 -6.32147 17.7075 -3.40847 0.667331 1 
2018 1 -8.64979 17.4551 -1.82638 9.59389 5 
2019 1 -7.4636 20.1642 -2.40611 4.01742 5 
2020 1 -6.34585 18.4285 -0.620369 5.24346 5 
2021 1 -5.21246 20.9447 -0.244938 6.835 5 
2022 1 -6.40577 23.2308 -1.12575 10.79 5 
2023 1 54.7835 1.11431 -7.58691 0.00285606 1 
2024 1 57.3029 2.14551 -6.6391 0.00801723 1 
2025 1 55.0531 2.05756 -4.90799 0.0168514 1 
2026 1 55.9978 4.56464 -5.82744 0.0138418 1 
2027 1 57.5969 3.09003 -3.92083 0.0507343 1 
2028 1 58.5142 5.59918 -4.90094 0.0278127 1 
2029 1 56.2749 5.52757 -3.12901 0.576142 5 
2030 1 57.1608 8.01687 -4.12247 0.624946 5 
2031 1 58.7402 6.59307 -2.23245 0.13069 1 
2032 1 59.725 9.12702 -3.20348 0.119045 1 
2033 1 57.5165 9.00657 -1.54542 6.28152 5 
2034 1 58.3949 11.5689 -2.18328 6.07103 5 
2035 1 60.2103 10.1986 -0.517757 1.82336 5 
2036 1 60.9838 12.6417 -1.40711 6.80612 5 
2037 1 58.7591 15.6137 -0.169432 12.9829 5 
2038 1 56.6208 0.568247 -3.06095 0.271036 1 
2039 1 54.4367 0.416116 -1.2166 6.5099 5 
2040 1 55.3618 2.94323 -2.25764 0.132126 1 
2041 1 57.0178 1.38104 -0.349726 7.8501 5 
2042 1 57.9085 4.03897 -1.20987 1.80163 5 
2043 1 56.3983 6.62142 -0.500917 5.65193 5 
45535 2 -0.117879 18.4863 7.36097 0.017547 1 
3152 1 -5.15697 37.1621 -14.8426 4.09664e-05 1 
3154 1 -2.66064 38.2054 -13.9067 7.77406e-05 1 
3189 1 -8.24703 28.6513 -14.6503 3.35549e-05 1 
3191 1 -5.75041 29.6899 -13.7149 4.18335e-05 1 
3192 1 -4.80017 32.2146 -14.6784 3.3685e-05 1 
3193 1 -7.05824 32.1129 -12.9176 7.71045e-05 1 
3194 1 -6.10836 34.6372 -13.8812 5.44141e-05 1 
3195 1 -4.56277 33.1529 -11.9864 0.000121737 1 
3196 1 -3.61249 35.6797 -12.9478 9.41772e-05 1 
3197 1 -5.87038 35.5767 -11.1866 0.000202133 1 
3198 1 -4.91962 38.1029 -12.1457 0.000157132 1 
3199 1 -3.3755 36.6228 -10.2557 0.000368834 1 
3200 1 -2.42366 39.1487 -11.2115 0.000299799 1 
3201 1 -4.68102 39.0466 -9.44511 0.00055097 1 
3225 1 57.63 20.1396 -14.4626 3.17286e-05 1 
3227 1 -8.84226 21.1805 -13.5226 5.62418e-05 1 
3228 1 -7.89031 23.7048 -14.4836 2.3292e-05 1 
3229 1 -10.1502 23.6049 -12.7285 0.000120563 1 
3230 1 -9.19795 26.128 -13.689 4.46471e-05 1 
3231 1 -7.6533 24.6426 -11.7893 0.000140062 1 
3232 1 -6.70087 27.1656 -12.7523 7.38573e-05 1 
3233 1 -8.95782 27.0669 -10.9938 0.000226824 1 
3234 1 -8.0074 29.59 -11.9543 0.000131988 1 
3235 1 -6.46075 28.1013 -10.0595 0.000374388 1 
3236 1 -5.51131 30.6271 -11.0212 0.000160462 1 
3237 1 -7.76287 30.5277 -9.256 0.000652664 1 
3238 1 -6.81762 33.0503 -10.2218 0.000290936 1 
3239 1 -5.26843 31.5645 -8.32503 0.00111395 1 
3240 1 -4.32425 34.0923 -9.29695 0.000668129 1 
3241 1 -6.57109 33.9843 -7.52596 0.00186944 1 
3242 1 -5.62983 36.5184 -8.49337 0.00121676 1 
3243 1 -4.08433 35.0373 -6.61412 0.00674074 1 
3244 1 -3.1374 37.572 -7.56056 0.00243186 1 
3245 1 -5.39563 37.4626 -5.79784 0.014559 1 
3246 1 -2.87428 38.5291 -4.85865 0.018504 1 
3261 1 54.5406 11.6271 -14.2622 4.48291e-05 1 
3263 1 57.0377 12.6693 -13.3223 8.40392e-05 1 
3264 1 57.9886 15.1932 -14.2893 5.59256e-05 1 
3265 1 55.7279 15.086 -12.536 0.000162083 1 
3266 1 56.6786 17.6133 -13.5008 5.72616e-05 1 
3267 1 58.2232 16.1293 -11.5971 0.000253906 1 
3268 1 59.1746 18.6553 -12.5606 0.000105608 1 
3269 1 56.9112 18.5513 -10.8106 0.000179128 1 
3270 1 57.8647 21.0787 -11.7716 0.00010872 1 
3271 1 -9.56505 19.5943 -9.86994 0.000568198 1 
3272 1 -8.60828 22.1196 -10.8313 0.000306913 1 
3273 1 -10.8722 22.0198 -9.08264 0.00069623 1 
3274 1 -9.91159 24.5478 -10.0304 0.0017607 1 
3275 1 -8.37651 23.0619 -8.14221 0.0034737 1 
3276 1 -7.41488 25.5786 -9.09277 0.00139828 1 
3277 1 -9.66464 25.4943 -7.31358 0.0255226 1 
3278 1 -8.7124 28.0021 -8.29907 0.00258431 1 
3279 1 -7.17003 26.5083 -6.39351 0.0122476 1 
3280 1 -6.21316 29.0319 -7.36722 0.00329793 1 
3281 1 -8.45502 28.9159 -5.61526 0.0480561 1 
3282 1 -7.50581 31.4596 -6.55138 0.00545112 1 
3283 1 -5.94222 29.971 -4.68129 0.0564441 1 
3284 1 -5.01976 32.5105 -5.61771 0.0158293 1 
3285 1 -7.21775 32.4001 -3.83178 0.0565304 1 
3286 1 -6.31099 34.9116 -4.827 0.0177996 1 
3287 1 -4.74601 33.4506 -2.85932 0.19409 1 
3288 1 -3.84082 35.9792 -3.94824 0.0646703 1 
3289 1 -6.0743 35.8669 -2.14799 0.190486 1 
3290 1 -5.10177 38.4359 -3.1347 0.13001 1 
3291 1 -3.56992 36.954 -1.35677 6.30079 5 
3292 1 -2.5502 39.5176 -2.16892 0.517343 1 
3293 1 -4.60904 39.5099 -0.411425 2.34191 5 
3295 1 52.7537 0.704338 -14.8654 5.4299e-05 1 
3297 1 51.4474 3.1241 -14.066 6.20222e-05 1 
3299 1 53.9443 4.16799 -13.1247 0.000243533 1 
3300 1 54.8962 6.68838 -14.0895 5.1237e-05 1 
3301 1 52.6373 6.58367 -12.327 0.000204416 1 
3302 1 53.589 9.10453 -13.2956 5.42696e-05 1 
3303 1 55.1339 7.62618 -11.3895 0.000353573 1 
3304 1 56.0867 10.1477 -12.3543 0.000125221 1 
3305 1 53.8252 10.0391 -10.5972 0.000274222 1 
3306 1 54.7773 12.5613 -11.5651 0.000178403 1 
3307 1 56.3251 11.084 -9.65156 0.00098345 1 
3308 1 57.2731 13.6038 -10.6258 0.000486965 1 
3309 1 55.0111 13.4923 -8.86545 0.00126556 1 
3310 1 55.9603 16.0188 -9.84712 0.00101298 1 
3311 1 57.5012 14.5339 -7.93132 0.00429763 1 
3312 1 58.4504 17.0663 -8.9103 0.00152101 1 
3313 1 56.183 16.9479 -7.16896 0.00917814 1 
3314 1 57.1366 19.4936 -8.11943 0.00162175 1 
3315 1 58.6599 18.0079 -6.23157 0.0114099 1 
3316 1 -9.34765 20.5376 -7.17855 0.00509334 1 
3317 1 57.3501 20.4442 -5.41275 0.0350665 1 
3318 1 -10.6372 22.9588 -6.39757 0.0112867 1 
3319 1 -9.13855 21.4787 -4.46135 0.125837 1 
3320 1 -8.13215 23.9954 -5.44852 0.024868 1 
3321 1 -10.3895 23.8946 -3.74879 0.209161 1 
3322 1 -9.39401 26.4289 -4.55246 0.617326 5 
3323 1 -7.81304 24.9752 -2.729 1.0172 1 
3324 1 -6.87433 27.4173 -3.69195 5.55581 5 
3325 1 -8.59223 27.4938 -1.45464 12.215 5 
3326 1 -8.13782 29.8243 -2.99787 6.17698 5 
3327 1 -7.64475 30.1778 -0.406601 11.146 5 
3328 1 -5.53242 30.8673 -1.92091 6.80355 5 
3329 1 -6.90954 33.2951 -1.1192 6.12096 5 
3330 1 50.4947 0.601633 -13.105 0.000147289 1 
3331 1 52.9914 1.64671 -12.1668 0.000218784 1 
3332 1 50.7333 1.54422 -10.4018 0.000853195 1 
3333 1 51.6859 4.0648 -11.3638 0.00017824 1 
3334 1 53.2308 2.59155 -9.46477 0.000938877 1 
3335 1 54.1837 5.11015 -10.4174 0.00207198 1 
3336 1 51.925 5.00727 -8.65802 0.00141399 1 
3337 1 52.8733 7.5192 -9.62049 0.00169493 1 
3338 1 54.4285 6.05529 -7.69375 0.0229749 1 
3339 1 55.3706 8.55954 -8.69319 0.00595096 1 
3340 1 53.0998 8.45119 -6.91045 0.016559 1 
3341 1 54.0574 10.9713 -7.90205 0.00440165 1 
3342 1 55.6156 9.47999 -6.02942 0.0758544 1 
3343 1 56.5634 12.0194 -6.94 0.011483 1 
3344 1 54.2862 11.9108 -5.21661 0.0254819 1 
3345 1 55.2396 14.4214 -6.15686 0.0160085 1 
3346 1 56.8052 12.9615 -4.21817 0.132938 1 
3347 1 57.7082 15.4547 -5.24622 0.0436425 1 
3348 1 55.4261 15.3186 -3.41337 2.51875 5 
3349 1 56.3903 17.8719 -4.52594 0.10016 1 
3350 1 57.8398 16.3914 -2.60879 7.03855 5 
3351 1 58.8938 18.9958 -3.55602 0.194872 1 
3352 1 56.6102 18.7927 -1.94026 7.93143 5 
3353 1 57.4751 21.4314 -2.67427 0.534107 1 
3354 1 58.9402 20.0026 -0.899561 4.45384 5 
3355 1 -8.97091 22.4116 -1.74271 6.94272 5 
3356 1 -10.0994 24.8959 -1.24406 10.9002 5 
3357 1 52.2774 0.0706871 -8.51443 0.00108101 1 
3358 1 30.0468 39.9922 -6.73656 0.00262189 1 
3359 1 50.9754 2.4899 -7.68866 0.00770618 1 
3360 1 52.527 1.01948 -5.81715 0.00715542 1 
3361 1 53.4739 3.53933 -6.75835 0.00724695 1 
3362 1 51.2196 3.44769 -4.9519 0.1107 1 
3363 1 52.1624 5.95214 -5.95488 0.025186 1 
3364 1 53.7265 4.48956 -4.0605 0.0841068 1 
3365 1 54.6792 6.99952 -4.94737 0.510036 5 
3366 1 52.4139 6.9525 -3.25888 0.961882 1 
3367 1 53.3498 9.40233 -4.23639 5.73466 5 
3368 1 54.6501 8.36161 -1.88111 13.3612 5 
3369 1 55.8409 10.4238 -3.42934 6.13882 5 
3370 1 53.3369 10.0909 -0.0575161 7.05732 5 
3371 1 54.4881 12.8511 -2.50998 3.76407 5 
3372 1 55.9001 11.0521 -0.843652 9.01278 5 
3373 1 56.9427 13.809 -1.35784 8.48073 5 
3374 1 54.8785 17.4765 -0.230996 11.2585 5 
3375 1 50.2725 0.936231 -4.02475 0.0444582 1 
3376 1 52.8107 1.96585 -3.15728 0.119456 1 
3377 1 50.599 1.9601 -1.31983 5.8771 5 
3378 1 51.4972 4.48307 -2.17505 2.65273 5 
3379 1 53.123 2.79533 -0.556334 10.3127 5 
3380 1 54.062 5.51664 -1.51079 4.58545 5 
3381 1 52.1926 7.51405 -0.471415 4.02228 5 
4508 1 -8.95982 38.5391 -14.9823 2.06384e-05 1 
4509 1 -6.46337 39.5821 -14.0438 5.45583e-05 1 
4545 1 -12.0507 30.0339 -14.7893 3.98553e-05 1 
4547 1 -9.55425 31.074 -13.8518 6.29511e-05 1 
4548 1 -8.60422 33.5961 -14.8156 4.17282e-05 1 
4549 1 -10.8606 33.495 -13.0513 0.00017729 1 
4550 1 -9.9111 36.0159 -14.0182 4.8505e-05 1 
4551 1 -8.36556 34.5343 -12.118 0.000222766 1 
4552 1 -7.41515 37.0584 -13.0815 7.60997e-05 1 
4553 1 -9.67227 36.9523 -11.3195 0.0003886 1 
4554 1 -8.72097 39.4763 -12.2828 0.000105362 1 
4555 1 -7.17607 37.9978 -10.3811 0.000502799 1 
4581 1 53.8245 21.5214 -14.6082 2.21908e-05 1 
4583 1 56.3216 22.5634 -13.6696 4.19817e-05 1 
4584 1 -11.6951 25.0883 -14.6277 2.99142e-05 1 
4585 1 55.0151 24.9884 -12.873 5.95462e-05 1 
4586 1 -13.0017 27.5118 -13.8296 4.89573e-05 1 
4587 1 -11.4554 26.0295 -11.9322 0.000153861 1 
4588 1 -10.5042 28.552 -12.8906 8.10125e-05 1 
4589 1 -12.7592 28.4545 -11.131 0.000203815 1 
4590 1 -11.8094 30.9748 -12.0888 0.000147761 1 
4591 1 -10.2603 29.4925 -10.1912 0.000369333 1 
4592 1 -9.31308 32.0134 -11.1518 0.000244989 1 
4593 1 -11.5623 31.9164 -9.38372 0.000604207 1 
4594 1 -10.6183 34.4342 -10.3445 0.00156684 1 
4595 1 -9.06634 32.9515 -8.44755 0.00126441 1 
4596 1 -8.12506 35.4699 -9.42056 0.00209418 1 
4597 1 -10.3697 35.3739 -7.6221 0.017078 1 
4598 1 -9.43361 37.8834 -8.62346 0.00535741 1 
4599 1 -7.87626 36.3958 -6.7305 0.019138 1 
4600 1 -6.93401 38.9396 -7.67334 0.00697368 1 
4601 1 -9.20195 38.7969 -5.95048 0.0719217 1 
4602 1 -6.68185 39.8894 -4.9459 0.0895079 1 
4618 1 50.7347 13.0042 -14.4139 4.81439e-05 1 
4620 1 53.2317 14.0446 -13.4748 9.50046e-05 1 
4621 1 54.1824 16.5713 -14.4399 5.04886e-05 1 
4622 1 51.923 16.4659 -12.6882 0.000167566 1 
4623 1 52.8732 18.9946 -13.6486 3.77445e-05 1 
4624 1 54.4182 17.5075 -11.75 0.000165642 1 
4625 1 55.3691 20.0366 -12.7105 5.50292e-05 1 
4626 1 53.1095 19.9337 -10.9582 0.000129867 1 
4627 1 54.0617 22.4621 -11.9168 7.9068e-05 1 
4628 1 55.6028 20.9772 -10.0205 0.000181436 1 
4629 1 56.5592 23.505 -10.9783 0.000239123 1 
4630 1 54.299 23.4054 -9.22805 0.000548211 1 
4631 1 55.2562 25.933 -10.179 0.000285899 1 
4632 1 -12.1688 24.4489 -8.28996 0.00248631 1 
4633 1 -11.2109 26.971 -9.23413 0.00134577 1 
4634 1 55.5025 26.8839 -7.48389 0.00240879 1 
4635 1 -12.5081 29.3992 -8.42961 0.00169718 1 
4636 1 -10.9582 27.9101 -6.5323 0.0177134 1 
4637 1 -10.0052 30.4311 -7.48767 0.00296342 1 
4638 1 -12.2285 30.3311 -5.71937 0.0112778 1 
4639 1 -11.3044 32.856 -6.67035 0.00288658 1 
4640 1 -9.72352 31.3704 -4.78061 0.0315916 1 
4641 1 -8.80645 33.8807 -5.73772 0.00794181 1 
4642 1 -11.0459 33.8071 -3.94613 0.0517931 1 
4643 1 -10.1249 36.3163 -4.87656 0.416442 1 
4644 1 -8.55201 34.8403 -3.02502 0.44553 1 
4645 1 -7.65365 37.3198 -4.04554 0.588331 1 
4646 1 -10.1422 37.6399 -1.82114 12.9673 5 
4647 1 -8.97152 39.7244 -3.35808 6.25062 5 
4648 1 -7.28938 38.2817 -1.47035 6.41368 5 
4655 1 47.6437 4.49699 -14.2128 5.5743e-05 1 
4657 1 50.141 5.54088 -13.2693 0.000209898 1 
4658 1 51.0922 8.06232 -14.2362 5.51696e-05 1 
4659 1 48.8325 7.95558 -12.4804 0.00025304 1 
4660 1 49.7835 10.4793 -13.4477 6.10432e-05 1 
4661 1 51.3286 8.99666 -11.5381 0.000311945 1 
4662 1 52.2804 11.5202 -12.5066 6.66474e-05 1 
4663 1 50.0183 11.4128 -10.7544 0.000163211 1 
4664 1 50.9715 13.9379 -11.7222 0.00016129 1 
4665 1 52.5151 12.453 -9.8098 0.000433885 1 
4666 1 53.4674 14.9768 -10.7838 0.000489405 1 
4667 1 51.2072 14.8683 -9.03151 0.00110652 1 
4668 1 52.1606 17.4004 -10.0016 0.000810181 1 
4669 1 53.6997 15.9036 -8.09773 0.0040504 1 
4670 1 54.6508 18.4449 -9.06258 0.000698277 1 
4671 1 52.3997 18.3334 -7.31947 0.00514853 1 
4672 1 53.3438 20.8759 -8.26677 0.000887066 1 
4673 1 54.8782 19.3889 -6.3743 0.00762318 1 
4674 1 55.8343 21.921 -7.33108 0.00170053 1 
4675 1 53.5724 21.8308 -5.57589 0.0146568 1 
4676 1 54.5344 24.3535 -6.54999 0.00772875 1 
4677 1 56.0675 22.8823 -4.6518 0.0322204 1 
4678 1 -11.9222 25.3993 -5.61268 0.0254019 1 
4679 1 54.7953 25.3158 -3.91338 0.098794 1 
4680 1 -13.2015 27.8417 -4.77209 0.0278929 1 
4681 1 -11.6261 26.3844 -2.9195 0.546937 5 
4682 1 -10.6434 28.8323 -3.79603 0.49126 5 
4683 1 -12.859 28.8108 -2.03574 0.284534 1 
4684 1 -11.9368 31.2647 -3.05685 0.153015 1 
4685 1 -10.3115 29.6935 -1.048 5.97902 5 
4686 1 -9.36354 32.2573 -2.06232 1.23329 5 
4687 1 -10.7352 34.8128 -1.33094 4.05468 5 
4688 1 46.6918 1.97383 -13.2476 6.95854e-05 1 
4689 1 48.237 0.496116 -11.3429 0.000216437 1 
4690 1 49.1888 3.01801 -12.3069 0.000125545 1 
4691 1 46.929 2.90842 -10.5471 0.000356288 1 
4692 1 47.881 5.43186 -11.516 0.000352156 1 
4693 1 49.4265 3.95424 -9.60636 0.00109548 1 
4694 1 50.3782 6.47926 -10.5634 0.00219952 1 
4695 1 48.1121 6.3646 -8.82442 0.00394784 1 
4696 1 49.0648 8.88897 -9.78274 0.00205145 1 
4697 1 50.6085 7.42288 -7.84218 0.0295214 1 
4698 1 51.5586 9.92639 -8.8445 0.0045278 1 
4699 1 49.2815 9.82015 -7.08175 0.018044 1 
4700 1 50.2469 12.3463 -8.06492 0.00230739 1 
4701 1 51.7675 10.8421 -6.17738 0.0775912 1 
4702 1 52.7466 13.3838 -7.10605 0.00880221 1 
4703 1 50.4756 13.2791 -5.37577 0.0278826 1 
4704 1 51.4447 15.7949 -6.34047 0.00947881 1 
4705 1 52.9726 14.3252 -4.39442 0.142877 1 
4706 1 53.9244 16.8196 -5.42567 0.047337 1 
4707 1 51.694 16.6956 -3.60955 5.24505 5 
4708 1 52.6472 19.2776 -4.64829 0.0449079 1 
4709 1 54.1117 17.7794 -2.80277 11.3635 5 
4710 1 55.0885 20.3646 -3.68049 0.237636 1 
4711 1 52.9298 20.2459 -1.92826 8.05485 5 
4712 1 53.7584 22.8488 -2.93531 0.834171 5 
4713 1 55.0722 21.67 -0.961731 8.2541 5 
4714 1 56.3024 23.888 -1.96318 6.79581 5 
4715 1 55.0688 26.2809 -1.34565 10.7649 5 
4716 1 -11.2698 27.2296 -0.192215 5.55983 5 
4717 1 45.9811 0.387334 -9.57897 0.00109604 1 
4718 1 48.4763 1.43489 -8.63662 0.000991967 1 
4719 1 46.2207 1.31941 -6.86181 0.0129548 1 
4720 1 47.1604 3.83787 -7.84589 0.00297882 1 
4721 1 48.7177 2.37571 -5.92797 0.00796892 1 
4722 1 49.6563 4.88626 -6.91701 0.0187729 1 
4723 1 47.37 4.75719 -5.1444 0.0304927 1 
4724 1 48.3154 7.29705 -6.15252 0.0426733 1 
4725 1 49.8561 5.80074 -4.28866 0.386364 1 
4726 1 50.8106 8.36315 -5.07428 0.454181 1 
4727 1 48.4835 8.30194 -3.51217 0.492965 1 
4728 1 49.4866 10.7595 -4.35993 0.290526 1 
4729 1 51.3075 9.49427 -2.19622 9.30046 5 
4730 1 51.9852 11.7842 -3.58442 6.51324 5 
4731 1 49.6113 11.6811 -1.61675 6.61264 5 
4732 1 50.7689 14.2565 -2.63023 1.49233 5 
4733 1 52.1794 12.3979 -1.03779 10.8086 5 
4734 1 53.2396 15.3156 -1.42117 9.58688 5 
4735 1 50.9489 19.3917 -0.35211 6.9888 5 
4736 1 46.4703 2.25585 -4.1291 0.146706 1 
4737 1 48.0317 0.823921 -2.12584 6.1897 5 
4738 1 48.9428 3.30872 -3.20843 0.187531 1 
4739 1 46.6488 3.08541 -1.23497 8.44211 5 
4740 1 47.5088 5.6766 -2.45896 5.4644 5 
4741 1 49.0783 4.44487 -0.584816 13.2369 5 
4742 1 50.0045 6.89115 -1.86958 11.495 5 
4743 1 48.5833 9.23137 -0.804894 5.86022 5 
4744 1 45.5443 0.287128 -0.757485 9.02393 5 
5900 1 53.1144 31.4124 -14.9319 2.71415e-05 1 
5902 1 -13.357 32.4543 -13.991 4.52532e-05 1 
5903 1 -12.4071 34.975 -14.9555 3.17705e-05 1 
5904 1 -14.6644 34.8726 -13.1947 0.000202382 1 
5905 1 -13.7149 37.3929 -14.1626 5.16158e-05 1 
5906 1 -12.168 35.9121 -12.2547 0.000193465 1 
5907 1 -11.2181 38.4337 -13.2234 5.29581e-05 1 
5908 1 -13.4779 38.327 -11.4661 0.0006159 1 
5909 1 -10.9797 39.3673 -10.5265 0.000550194 1 
5936 1 50.0193 22.9029 -14.7489 2.31314e-05 1 
5938 1 52.517 23.9455 -13.8118 3.59227e-05 1 
5939 1 53.4693 26.4699 -14.7693 3.03814e-05 1 
5940 1 51.2104 26.3689 -13.0121 7.5912e-05 1 
5941 1 52.1627 28.8912 -13.9705 5.75689e-05 1 
5942 1 53.7098 27.4129 -12.0725 0.000110442 1 
5943 1 -14.3073 29.9339 -13.0294 0.000110243 1 
5944 1 52.4043 29.8342 -11.2711 0.00021179 1 
5945 1 -15.6141 32.3524 -12.2322 9.75389e-05 1 
5946 1 -14.0623 30.8773 -10.3265 0.000714066 1 
5947 1 -13.115 33.3945 -11.2885 0.000153761 1 
5948 1 -15.3715 33.2919 -9.53278 0.00113185 1 
5949 1 -14.4251 35.8119 -10.4891 0.00225488 1 
5950 1 -12.8688 34.3352 -8.58288 0.00177272 1 
5951 1 -11.9289 36.8452 -9.55054 0.00205954 1 
5952 1 -14.1905 36.7564 -7.76897 0.0304486 1 
5953 1 -13.246 39.2541 -8.7803 0.0111305 1 
5954 1 -11.6961 37.7708 -6.84392 0.0165704 1 
5972 1 46.928 14.3856 -14.5632 6.78207e-05 1 
5974 1 49.4258 15.4257 -13.626 0.00012913 1 
5975 1 50.3765 17.9533 -14.5862 3.49018e-05 1 
5976 1 48.117 17.8512 -12.8333 0.000103456 1 
5977 1 49.0679 20.3779 -13.79 4.3335e-05 1 
5978 1 50.6145 18.8918 -11.8957 0.000112168 1 
5979 1 51.5651 21.4195 -12.8534 4.01247e-05 1 
5980 1 49.3078 21.3185 -11.0964 0.000162956 1 
5981 1 50.2583 23.844 -12.0549 6.69462e-05 1 
5982 1 51.8037 22.3608 -10.1613 0.000182607 1 
5983 1 52.7565 24.8885 -11.1193 0.000177424 1 