ITEM: TIMESTEP
0
ITEM: NUMBER OF ATOMS
12328
ITEM: BOX BOUNDS xy xz yz pp pp ss
-97.33490638000001 192.108367855 -97.33490638000001
0 35.860228666 0
-190.0747595383304 210.7972589745052 0
ITEM: ATOMS id type x y z c_csym c_cna 
4092 1 1.1148 34.4118 -13.5589 0.0001439 1 
4093 1 1.54823 35.571 -9.68208 0.000521396 1 
5785 1 1.31746 29.5076 -14.2402 0.000149537 1 
5786 1 0.470126 31.7616 -12.6889 0.000243433 1 
5787 1 1.74203 30.6717 -10.3664 0.000746857 1 
5788 1 0.248525 30.2849 -7.9269 0.00401024 1 
5789 1 0.899855 32.9235 -8.80401 0.00140803 1 
5790 1 2.17247 31.8406 -6.47408 0.00318073 1 
5791 1 0.70687 31.4752 -4.02081 0.0404103 1 
5792 1 1.34197 34.1054 -4.91931 0.0132595 1 
5793 1 2.60595 33.0395 -2.57247 0.0844834 1 
5794 1 1.23426 32.8155 -0.111395 7.30271 2 
5795 1 1.71994 35.3405 -1.01412 0.933741 5 
5827 1 3.23793 31.0638 -12.7908 0.000234111 1 
5828 1 3.88248 33.7137 -13.6564 0.000124456 1 
5829 1 2.38992 33.318 -11.235 0.000363001 1 
5830 1 5.15664 32.6189 -11.3413 0.000318303 1 
5831 1 3.66068 32.2261 -8.9149 0.000868451 1 
5832 1 4.3079 34.8746 -9.78085 0.000566702 1 
5833 1 2.82186 34.4817 -7.34789 0.00193507 1 
5834 1 5.57286 33.7787 -7.46282 0.00264892 1 
5835 1 4.08895 33.3854 -5.00712 0.0111292 1 
5836 1 3.26155 35.6517 -3.41705 0.0585713 1 
5837 1 5.97774 34.9184 -3.55113 0.0402649 1 
5838 1 4.45186 34.514 -0.995749 0.889158 5 
5902 1 6.65329 33.0134 -13.7591 0.000132819 1 
5903 1 7.29464 35.6656 -14.6227 9.26953e-05 1 
5904 1 5.80054 35.2698 -12.2047 0.000225118 1 
5905 1 8.57066 34.5689 -12.3119 0.000311036 1 
5906 1 7.07187 34.1736 -9.89274 0.000788161 1 
5907 1 8.98386 35.7297 -8.44926 0.00242863 1 
5908 1 7.47595 35.3317 -6.01726 0.00667206 1 
6002 1 10.0676 34.9642 -14.7257 0.000112934 1 
7825 1 0.436526 25.3851 -8.65031 0.00235232 1 
7826 1 0.854369 26.596 -4.78993 0.0891546 1 
7827 1 1.40584 27.9064 -0.46435 9.27005 5 
7843 1 1.5237 24.6 -14.922 0.000148248 1 
7845 1 0.670214 26.8582 -13.3738 0.000251183 1 
7846 1 3.44575 26.156 -13.4809 0.000270266 1 
7847 1 1.94294 25.7675 -11.0689 0.00077709 1 
7848 1 2.59146 28.4158 -11.9287 0.000498015 1 
7849 1 1.09162 28.0295 -9.50619 0.00174612 1 
7850 1 3.86562 27.3238 -9.62923 0.00169492 1 
7851 1 2.36162 26.9456 -7.21432 0.0081359 1 
7852 1 3.00894 29.5835 -8.05087 0.00294845 1 
7853 1 1.51139 29.2134 -5.59703 0.0299022 1 
7854 1 4.27034 28.4878 -5.75195 0.0283103 1 
7855 1 2.7422 28.1235 -3.295 0.466412 1 
7856 1 3.44329 30.7481 -4.14205 0.0236081 1 
7857 1 2.01051 30.398 -1.65171 5.79208 5 
7858 1 4.69085 29.5719 -1.816 4.74363 5 
7859 1 3.95009 31.8921 -0.19204 6.95846 5 
7909 1 4.09043 28.807 -14.3436 0.000162734 1 
7910 1 6.86752 28.1027 -14.4466 0.000156932 1 
7911 1 5.36789 27.7111 -12.0393 0.000504085 1 
7912 1 6.01078 30.3619 -12.8973 0.000246334 1 
7913 1 4.51066 29.9703 -10.4803 0.000714785 1 
7914 1 7.28822 29.2631 -10.5961 0.000820168 1 
7915 1 5.7826 28.8723 -8.1826 0.00315463 1 
7916 1 6.42808 31.521 -9.0343 0.000979461 1 
7917 1 4.92562 31.1283 -6.60328 0.00400753 1 
7918 1 7.69921 30.4124 -6.74211 0.0041375 1 
7919 1 6.1751 30.014 -4.30762 0.0628802 1 
7920 1 6.82778 32.669 -5.16521 0.0153175 1 
7921 1 5.3394 32.2517 -2.65132 0.142329 1 
7922 1 8.0528 31.5745 -2.90123 0.525491 1 
7923 1 6.67016 30.8943 -0.358053 2.62385 5 
7924 1 7.12463 33.8085 -1.19289 2.01707 5 
8008 1 8.78908 29.6562 -13.0031 0.000262739 1 
8009 1 9.42853 32.3103 -13.8635 0.000157142 1 
8010 1 7.92978 31.9154 -11.452 0.000402059 1 
8011 1 10.7106 31.208 -11.5615 0.000469159 1 
8012 1 9.20843 30.8112 -9.15588 0.00131182 1 
8013 1 9.84716 33.4682 -10.0117 0.00109339 1 
8014 1 8.34042 33.071 -7.59641 0.00284256 1 
8015 1 11.1324 32.357 -7.73075 0.00633931 1 
8016 1 9.61372 31.9584 -5.33102 0.0510274 1 
8017 1 10.2582 34.6221 -6.17809 0.0202575 1 
8018 1 8.72947 34.2268 -3.7553 0.172656 1 
8019 1 11.6014 33.47 -3.99677 0.0994495 1 
8020 1 10.1145 32.9906 -1.72915 0.589926 1 
8021 1 10.7555 35.719 -2.46187 0.259521 1 
8022 1 9.2715 35.1552 -0.226194 2.39354 5 
8023 1 11.9546 34.435 -0.250302 0.840934 1 
8134 1 12.2078 31.6048 -13.9657 0.000159447 1 
8135 1 12.8444 34.2609 -14.8284 0.000115394 1 
8136 1 11.3478 33.8648 -12.4207 0.000362265 1 
8137 1 14.1301 33.1581 -12.5249 0.00030229 1 
8138 1 12.6344 32.7582 -10.1263 0.00112207 1 
8139 1 13.2673 35.4197 -10.9821 0.000701699 1 
8140 1 11.7671 35.0209 -8.58166 0.00320732 1 
8141 1 14.5616 34.3075 -8.69496 0.00203419 1 
8142 1 13.0763 33.8946 -6.32516 0.0137813 1 
8143 1 14.9817 35.4378 -4.88643 0.0192199 1 
8144 1 13.5117 35.0001 -2.51631 0.144582 1 
8264 1 15.6233 33.5565 -14.9281 9.748e-05 1 
8265 1 14.7636 35.8169 -13.386 0.000210717 1 
8266 1 17.5438 35.1117 -13.4856 0.000162889 1 
8267 1 16.0518 34.7122 -11.0858 0.000471874 1 
8268 1 16.4763 35.8587 -7.25852 0.00241573 1 
10178 1 0.235035 19.2984 -13.1909 0.00034123 1 
10179 1 0.87837 21.9493 -14.0558 0.000243475 1 
10180 1 2.15452 20.852 -11.7554 0.000610428 1 
10181 1 0.642516 20.4657 -9.34904 0.00150255 1 
10182 1 1.29158 23.1177 -10.2084 0.00121767 1 
10183 1 2.566 22.0205 -7.93111 0.00423193 1 
10184 1 1.04119 21.6327 -5.53241 0.0145008 1 
10185 1 1.70462 24.3 -6.3769 0.0108158 1 
10186 1 0.17732 23.9181 -3.98481 0.0770319 1 
10187 1 2.99663 23.1637 -4.15895 0.0128864 1 
10188 1 1.4964 22.7484 -1.83821 0.102785 1 
10189 1 2.12919 25.4276 -2.63272 0.607061 1 
10190 1 0.738225 25.1266 -0.276017 6.03713 5 
10191 1 3.49646 24.1487 -0.518461 1.51598 5 
10227 1 3.65982 21.2418 -14.1591 0.000213008 1 
10229 1 2.79989 23.5044 -12.6182 0.00043307 1 
10230 1 5.58426 22.794 -12.7224 0.000366886 1 
10231 1 4.07947 22.4043 -10.3261 0.00119579 1 
10232 1 4.72433 25.0587 -11.183 0.000742939 1 
10233 1 3.21834 24.6737 -8.78097 0.00218827 1 
10234 1 6.00976 23.9518 -8.89772 0.00197501 1 
10235 1 4.50678 23.5637 -6.51661 0.00712961 1 
10236 1 5.14874 26.2221 -7.34995 0.00761782 1 
10237 1 3.64894 25.8436 -4.96509 0.048571 1 
10238 1 6.46344 25.0749 -5.09862 0.0178051 1 
10239 1 4.97625 24.6349 -2.79703 0.0697218 1 
10240 1 5.59684 27.3327 -3.54548 0.103473 1 
10241 1 4.07432 26.8368 -1.31051 6.92751 5 
10242 1 6.94922 26.0557 -1.32736 1.06282 5 
10243 1 5.91031 28.0686 0.172425 10.1667 5 
10313 1 6.22603 25.449 -13.5849 0.000240413 1 
10314 1 9.00843 24.7395 -13.6821 0.000193781 1 
10315 1 7.5108 24.3442 -11.2864 0.000582551 1 
10316 1 8.14986 27.0014 -12.1448 0.000421667 1 
10317 1 6.64906 26.6095 -9.74663 0.00151325 1 
10318 1 9.43773 25.8914 -9.85026 0.000841927 1 
10319 1 7.94073 25.491 -7.46787 0.00364034 1 
10320 1 8.57176 28.1553 -8.31059 0.00236509 1 
10321 1 7.07228 27.759 -5.91599 0.0145008 1 
10322 1 9.86273 27.0269 -6.0403 0.0094673 1 
10323 1 8.38368 26.5831 -3.67178 0.0214001 1 
10324 1 8.98496 29.2885 -4.47155 0.0692439 1 
10325 1 7.47246 28.8152 -2.13632 0.303006 1 
10326 1 10.3087 28.0652 -2.2554 0.135761 1 
10327 1 8.75011 27.6822 0.0961246 7.7215 5 
10328 1 9.47114 30.3235 -0.967726 6.3719 5 
10419 1 9.64741 27.3959 -14.5459 0.00013375 1 
10420 1 12.4279 26.6889 -14.6404 0.00012054 1 
10421 1 10.9344 26.2901 -12.2416 0.000305736 1 
10422 1 11.5713 28.948 -13.1037 0.000234367 1 
10423 1 10.0737 28.5511 -10.7055 0.00069594 1 
10424 1 12.8624 27.8383 -10.802 0.000579743 1 
10425 1 11.3658 27.435 -8.41578 0.00193068 1 
10426 1 12 30.0966 -9.26931 0.0016307 1 
10427 1 10.4958 29.6934 -6.87549 0.00977328 1 
10428 1 13.3086 28.9682 -6.98976 0.00578637 1 
10429 1 11.812 28.5317 -4.63174 0.0290652 1 
10430 1 12.4585 31.2149 -5.48983 0.0286485 1 
10431 1 10.9704 30.7609 -3.19005 0.179975 1 
10432 1 13.7717 30.0559 -3.20416 0.0326918 1 
10433 1 12.2588 29.5913 -0.905334 4.60175 5 
10434 1 12.8647 32.2535 -1.76735 0.296544 1 
10536 1 14.3541 28.2403 -13.1971 0.000227729 1 
10537 1 14.9888 30.8988 -14.0631 0.00014035 1 
10538 1 13.4965 30.4984 -11.6635 0.000412385 1 
10539 1 16.2815 29.7913 -11.7549 0.000412641 1 
10540 1 14.7956 29.3836 -9.36485 0.0013479 1 
10541 1 15.4246 32.0479 -10.2259 0.000862774 1 
10542 1 13.9395 31.6371 -7.84485 0.00452404 1 
10543 1 16.7268 30.9301 -7.91847 0.00177361 1 
10544 1 15.2534 30.5049 -5.54275 0.00720957 1 
10545 1 15.8664 33.1796 -6.39714 0.00479159 1 
10546 1 14.3926 32.7403 -4.0342 0.0331106 1 
10547 1 17.1631 32.042 -4.06341 0.0344261 1 
10548 1 15.6713 31.5639 -1.68343 0.347053 1 
10549 1 16.2422 34.3001 -2.60403 0.211814 1 
10550 1 14.6433 33.6822 -0.270265 6.35134 5 
10551 1 17.4582 33.2267 -0.298245 7.3412 5 
10660 1 17.7681 30.1947 -14.1557 0.000140845 1 
10662 1 16.9127 32.452 -12.6208 0.000248497 1 
10663 1 19.692 31.7487 -12.7105 0.000203619 1 
10664 1 18.2078 31.3433 -10.3098 0.000526833 1 
10665 1 18.8347 34.0058 -11.1784 0.000320797 1 
10666 1 17.3469 33.599 -8.78487 0.000701439 1 
10667 1 20.1308 32.8972 -8.86504 0.000710926 1 
10668 1 18.6413 32.4832 -6.47247 0.00319636 1 
10669 1 19.2643 35.1527 -7.34654 0.00221505 1 
10670 1 17.7686 34.7352 -4.95665 0.0184711 1 
10671 1 20.5725 34.0307 -5.04685 0.0152348 1 
10672 1 19.0531 33.5866 -2.6632 0.0895726 1 
10673 1 20.9869 35.1738 -1.32859 4.9679 5 
10790 1 20.3231 34.4073 -13.5804 0.000136812 1 
10791 1 23.1003 33.7051 -13.673 0.000142743 1 
10792 1 21.6149 33.3032 -11.266 0.000313013 1 
10793 1 20.755 35.5599 -9.73863 0.00068391 1 
10794 1 23.5384 34.8584 -9.82468 0.000776004 1 
10795 1 22.0597 34.4498 -7.42616 0.00363402 1 
10796 1 22.5144 35.5955 -3.62071 0.0396856 1 
10919 1 26.5099 35.6602 -14.6401 7.90543e-05 1 
10920 1 25.0222 35.2608 -12.2304 0.000262665 1 
12777 1 0.462147 14.3823 -13.8664 0.000202127 1 
12778 1 0.876857 15.5409 -10.0294 0.000834385 1 
12779 1 1.26987 16.6959 -6.21258 0.0113655 1 
12780 1 0.389844 18.953 -4.66443 0.0290048 1 
12781 1 1.65281 17.8111 -2.42791 0.267354 1 
12782 1 0.266319 17.2403 0.230967 4.94866 5 
12783 1 0.859949 20.0535 -0.981511 0.428346 1 
12805 1 1.09865 17.0361 -14.7323 0.000155968 1 
12806 1 3.8803 16.3265 -14.826 0.000158842 1 
12807 1 2.381 15.9324 -12.4249 0.000349294 1 
12808 1 3.01871 18.5877 -13.2927 0.00028502 1 
12809 1 1.5123 18.1978 -10.8925 0.000721911 1 
12810 1 4.3025 17.4811 -10.9901 0.000695455 1 
12811 1 2.792 17.0893 -8.60163 0.00181957 1 
12812 1 3.43413 19.7483 -9.46631 0.00164172 1 
12813 1 1.91418 19.3595 -7.07451 0.00522656 1 
12814 1 4.72477 18.6334 -7.19186 0.00485959 1 
12815 1 3.19716 18.2426 -4.83078 0.0180661 1 
12816 1 3.85926 20.8994 -5.68709 0.010816 1 
12817 1 2.34238 20.4876 -3.34206 0.0485689 1 
12818 1 5.15906 19.7714 -3.42871 0.0401332 1 
12819 1 3.63188 19.4067 -1.0939 0.161251 1 
12820 1 4.30887 21.978 -1.94067 0.127453 1 
12875 1 5.80359 17.8758 -13.3852 0.000300931 1 
12876 1 6.44304 20.5319 -14.2552 0.000194219 1 
12877 1 4.94266 20.1381 -11.858 0.000547412 1 
12878 1 7.73093 19.4234 -11.9468 0.000545515 1 
12879 1 6.233 19.0264 -9.56125 0.00157611 1 
12880 1 6.87214 21.6851 -10.4253 0.000903044 1 
12881 1 5.36946 21.2922 -8.04745 0.0030951 1 
12882 1 8.16862 20.5637 -8.12461 0.00295922 1 
12883 1 6.67204 20.1616 -5.764 0.0106664 1 
12884 1 7.30922 22.8209 -6.62254 0.00541384 1 
12885 1 5.81814 22.4044 -4.27101 0.0220936 1 
12886 1 8.60139 21.6767 -4.3149 0.0169016 1 
12887 1 7.09415 21.2544 -1.93821 0.182951 1 
12888 1 7.78294 23.8776 -2.81424 0.109455 1 
12889 1 6.28839 23.4316 -0.539842 1.84663 5 
12890 1 9.09615 22.6405 -0.282591 5.07377 5 
12964 1 9.22445 19.8232 -14.3446 0.00021114 1 
12966 1 8.36944 22.0817 -12.8161 0.000297796 1 
12967 1 11.1513 21.3727 -12.9017 0.000315909 1 
12968 1 9.66017 20.9688 -10.507 0.000765411 1 
12969 1 10.2973 23.63 -11.377 0.000443413 1 
12970 1 8.80298 23.2276 -8.99188 0.00136024 1 
12971 1 11.5896 22.5133 -9.06613 0.00116838 1 
12972 1 10.0977 22.0979 -6.68466 0.0040597 1 
12973 1 10.7319 24.7676 -7.5576 0.00201601 1 
12974 1 9.24224 24.3423 -5.18726 0.0110123 1 
12975 1 12.0196 23.6401 -5.24683 0.00434199 1 
12976 1 10.5127 23.1973 -2.84964 0.101058 1 
12977 1 11.1629 25.8793 -3.77734 0.0308805 1 
12978 1 9.67951 25.3911 -1.39075 5.34642 5 
12979 1 12.4155 24.7885 -1.48901 6.33698 5 
12980 1 11.4997 26.8714 0.0973267 9.8322 5 
13062 1 11.7899 24.0312 -13.7728 0.00018283 1 
13063 1 14.568 23.3272 -13.86 0.000200424 1 
13064 1 13.0798 22.9222 -11.4582 0.000496793 1 
13065 1 13.718 25.5816 -12.3298 0.000327268 1 
13066 1 12.2266 25.1769 -9.93807 0.000691127 1 
13067 1 15.0125 24.4716 -10.0136 0.00109819 1 
13068 1 13.5217 24.0593 -7.62719 0.00186243 1 
13069 1 14.163 26.7206 -8.50018 0.00197008 1 
13070 1 12.6697 26.3034 -6.13136 0.00699407 1 
13071 1 15.4644 25.6082 -6.17958 0.00378092 1 
13072 1 13.9572 25.2001 -3.81491 0.0117485 1 
13073 1 14.6184 27.8407 -4.68419 0.00811811 1 
13074 1 13.1066 27.42 -2.3332 0.0727213 1 
13075 1 15.9098 26.7338 -2.33475 0.101391 1 
13076 1 14.2945 26.4039 -0.00761398 3.47054 5 
13077 1 15.1108 28.925 -0.864379 4.70322 5 
13165 1 15.2066 25.9843 -14.7312 0.000124702 1 
13166 1 17.9818 25.2837 -14.8213 0.000136814 1 
13167 1 16.4969 24.8793 -12.4134 0.000377346 1 
13168 1 17.1335 27.5367 -13.2857 0.000236525 1 
13169 1 15.6494 27.1304 -10.8855 0.000848076 1 
13170 1 18.4264 26.4324 -10.9636 0.000623062 1 
13171 1 16.9499 26.0202 -8.55937 0.00317852 1 
13172 1 17.5795 28.6814 -9.43906 0.000974076 1 
13173 1 16.1008 28.2659 -7.05251 0.00267803 1 
13174 1 18.877 27.5769 -7.10539 0.00228428 1 
13175 1 17.3998 27.158 -4.71093 0.00648083 1 
13176 1 18.0284 29.8127 -5.5862 0.00782895 1 
13177 1 16.5583 29.3791 -3.20624 0.0479011 1 
13178 1 19.3071 28.7094 -3.20397 0.0988448 1 
13179 1 17.898 28.1495 -0.769626 5.91147 5 
13180 1 18.4139 30.9025 -1.63625 6.61281 5 
13278 1 19.9077 26.8382 -13.3732 0.000233019 1 
13279 1 20.5437 29.494 -14.2463 0.000131553 1 
13280 1 19.0602 29.0902 -11.8389 0.000353839 1 
13281 1 21.833 28.3942 -11.9238 0.000318074 1 
13282 1 20.3539 27.9893 -9.51178 0.0007665 1 
13283 1 20.9854 30.6453 -10.3902 0.000481472 1 
13284 1 19.5051 30.2356 -7.98617 0.00153668 1 
13285 1 22.2796 29.55 -8.05715 0.00119786 1 
13286 1 20.7967 29.1433 -5.63947 0.00606832 1 
13287 1 21.4302 31.7936 -6.5391 0.00444461 1 
13288 1 19.9189 31.3803 -4.14534 0.0357626 1 
13289 1 22.7302 30.7294 -4.19663 0.0268227 1 
13290 1 21.1705 30.323 -1.86639 2.97922 5 
13291 1 21.8711 32.9575 -2.71707 0.0397048 1 
13292 1 20.2914 32.5069 -0.324971 8.48971 5 
13293 1 23.1824 31.9685 -0.371167 4.62725 5 
13397 1 23.3157 28.7958 -14.3388 0.000112342 1 
13399 1 22.4673 31.0491 -12.7993 0.000207323 1 
13400 1 25.2383 30.3521 -12.8913 0.000176181 1 
13401 1 23.7579 29.9516 -10.4731 0.000529562 1 
13402 1 24.391 32.6048 -11.3528 0.000444211 1 
13403 1 22.9116 32.2016 -8.943 0.000959335 1 
13404 1 25.6841 31.5106 -9.02148 0.00141512 1 
13405 1 24.2119 31.116 -6.60479 0.00218101 1 
13406 1 24.8385 33.7626 -7.49548 0.00201999 1 
13407 1 23.3743 33.3549 -5.08528 0.0155551 1 
13408 1 26.1407 32.6906 -5.14375 0.00595056 1 
13409 1 24.711 32.2997 -2.6982 0.142899 1 
13410 1 25.303 34.9341 -3.61802 0.0583031 1 
13411 1 23.8333 34.5087 -1.26789 4.60661 5 
13412 1 26.6813 33.7859 -1.12284 3.46057 5 
13524 1 25.8743 33.0057 -13.7666 0.000124633 1 
13525 1 28.6455 32.3078 -13.863 8.77967e-05 1 
13526 1 27.1605 31.9098 -11.4443 0.000323441 1 
13527 1 27.7964 34.5626 -12.3218 0.000197968 1 
13528 1 26.3138 34.1637 -9.90781 0.000651212 1 
13529 1 29.0824 33.4708 -9.99777 0.000421783 1 
13530 1 27.6048 33.0779 -7.57412 0.00176374 1 
13531 1 28.2359 35.7261 -8.4604 0.00135897 1 
13532 1 26.7579 35.3336 -6.04433 0.00699273 1 
13533 1 29.5243 34.6542 -6.11964 0.00665599 1 
13534 1 28.0416 34.2919 -3.67042 0.113153 1 
13535 1 127.316 0.0465405 -2.27982 0.386965 1 
13536 1 125.929 0.177352 0.111597 3.59543 5 
13656 1 29.284 34.9605 -14.7358 5.73436e-05 1 
13657 1 32.0563 34.2617 -14.8341 4.6993e-05 1 
13658 1 30.567 33.8656 -12.4175 0.000133169 1 
13659 1 32.4893 35.4238 -10.9687 0.00030856 1 
13660 1 31.006 35.033 -8.54609 0.000983283 1 
13784 1 33.9776 35.8187 -13.3874 0.000114806 1 
15589 1 0.238729 12.395 -0.684404 6.26997 5 
15598 1 0.688491 9.46794 -14.5358 0.000148296 1 
15600 1 2.60967 11.0172 -13.0848 0.000324847 1 
15601 1 1.11925 10.6185 -10.6855 0.000964482 1 
15602 1 1.74781 13.2758 -11.5558 0.000486451 1 
15603 1 0.249575 12.8813 -9.16522 0.00125403 1 
15604 1 3.03644 12.1647 -9.23707 0.00126772 1 
15605 1 1.54111 11.767 -6.8483 0.00350468 1 
15606 1 2.16066 14.4274 -7.7284 0.00235828 1 
15607 1 0.644021 14.0355 -5.35158 0.0160402 1 
15608 1 3.43839 13.3216 -5.40535 0.0163285 1 
15609 1 1.88048 12.9354 -3.04284 0.222365 1 
15610 1 2.52298 15.5998 -3.93937 0.153306 1 
15611 1 1.0884 15.0762 -1.34486 2.60257 5 
15612 1 3.83874 14.5161 -1.81739 5.57696 5 
15613 1 3.01064 16.857 -0.303731 8.12568 5 
15653 1 3.24381 13.6718 -13.9556 0.00022702 1 
15654 1 6.02244 12.9644 -14.041 0.00027161 1 
15655 1 4.53073 12.5643 -11.6352 0.000636643 1 
15656 1 5.1659 15.2196 -12.5116 0.000448479 1 
15657 1 3.66655 14.8227 -10.1161 0.000865741 1 
15658 1 6.45457 14.1094 -10.1899 0.00132233 1 
15659 1 4.95302 13.7104 -7.79682 0.00279457 1 
15660 1 5.59204 16.3684 -8.68834 0.00203081 1 
15661 1 4.07422 15.9783 -6.31558 0.00719493 1 
15662 1 6.88995 15.2597 -6.38168 0.0117038 1 
15663 1 5.37969 14.8824 -4.0528 0.0649115 1 
15664 1 6.0276 17.5228 -4.91266 0.0253938 1 
15665 1 4.50597 17.1591 -2.60838 0.135676 1 
15666 1 7.30785 16.4292 -2.57608 0.0632916 1 
15667 1 5.78112 16.0726 -0.267032 6.72089 2 
15668 1 6.36117 18.6478 -1.0961 0.207032 1 
15720 1 6.66028 15.6183 -14.9149 0.000196722 1 
15722 1 7.94675 14.5116 -12.5925 0.00059875 1 
15723 1 8.58554 17.1666 -13.4704 0.000392679 1 
15724 1 7.09267 16.7657 -11.0724 0.000904494 1 
15725 1 9.87452 16.0579 -11.1442 0.00130739 1 
15726 1 8.38707 15.6544 -8.74893 0.00334234 1 
15727 1 9.0239 18.3095 -9.63077 0.00173229 1 
15728 1 7.53207 17.9097 -7.25566 0.00624331 1 
15729 1 10.3159 17.1984 -7.28932 0.00464969 1 
15730 1 8.82624 16.8043 -4.91055 0.0170458 1 
15731 1 9.46179 19.439 -5.78836 0.0111963 1 
15732 1 7.95078 19.0354 -3.41801 0.0356313 1 
15733 1 10.7214 18.327 -3.38411 0.0613073 1 
15734 1 9.14675 17.9094 -0.976459 0.173389 1 
15735 1 9.8173 20.5572 -1.95269 0.233602 1 
15736 1 10.8858 19.5363 0.43223 8.13112 5 
15798 1 11.3609 16.4638 -13.5538 0.000389311 1 
15799 1 12.0014 19.1189 -14.4311 0.000230746 1 
15800 1 10.5126 18.7144 -12.0257 0.000623378 1 
15801 1 13.286 18.0144 -12.1039 0.000642581 1 
15802 1 11.8002 17.6058 -9.69243 0.00159067 1 
15803 1 12.44 20.2628 -10.5795 0.00086676 1 
15804 1 10.9507 19.8521 -8.18228 0.00216423 1 
15805 1 13.723 19.1578 -8.23981 0.00208813 1 
15806 1 12.2258 18.7461 -5.82507 0.00606376 1 
15807 1 12.8761 21.3986 -6.73514 0.0026424 1 
15808 1 11.3711 20.978 -4.33569 0.0142966 1 
15809 1 14.15 20.3002 -4.38258 0.0163997 1 
15810 1 12.5967 19.8753 -1.97491 0.169636 1 
15811 1 13.3072 22.5452 -2.9484 0.0504375 1 
15812 1 11.8322 22.119 -0.62353 7.27218 5 
15813 1 14.538 21.5379 -0.623291 2.41972 5 
15881 1 14.7732 18.42 -14.5194 0.000217985 1 
15883 1 13.9276 20.6703 -12.9846 0.000356503 1 
15884 1 16.6982 19.9745 -13.0711 0.00033464 1 
15885 1 15.2117 19.5679 -10.6541 0.000915769 1 
15886 1 15.8562 22.2231 -11.5374 0.00056088 1 
15887 1 14.3697 21.8136 -9.13295 0.00130001 1 
15888 1 17.1423 21.1261 -9.20399 0.00148489 1 
15889 1 15.6537 20.7164 -6.79224 0.00439147 1 
15890 1 16.3081 23.3683 -7.68289 0.00359844 1 
15891 1 14.8112 22.9574 -5.30303 0.00653121 1 
15892 1 17.5981 22.2817 -5.33145 0.0160817 1 
15893 1 16.0871 21.8819 -2.95753 0.0484819 1 
15894 1 16.7442 24.5109 -3.83275 0.0113632 1 
15895 1 15.19 24.1263 -1.47642 0.186355 1 
15896 1 17.9767 23.4015 -1.44342 0.24235 1 
15897 1 17.0172 25.5548 0.0328993 3.85284 5 
15973 1 17.3415 22.6287 -13.948 0.000207664 1 
15974 1 20.1109 21.9341 -14.0405 0.000183619 1 
15975 1 18.6259 21.5318 -11.6214 0.000541688 1 
15976 1 19.2692 24.1839 -12.4981 0.000386985 1 
15977 1 17.7887 23.7775 -10.0856 0.00097387 1 
15978 1 20.5556 23.0909 -10.1647 0.00104588 1 
15979 1 19.0796 22.6872 -7.74133 0.00267791 1 
15980 1 19.7186 25.3349 -8.62697 0.00151595 1 
15981 1 18.2511 24.9167 -6.20272 0.0188089 1 
15982 1 21.0055 24.2533 -6.27184 0.00718177 1 
15983 1 19.5385 23.8163 -3.79792 0.164823 1 
15984 1 20.1637 26.4907 -4.75266 0.0113199 1 
15985 1 18.6633 26.0427 -2.35656 0.118097 1 
15986 1 21.428 25.3884 -2.4179 0.448187 1 
15987 1 19.7806 24.8837 -0.0517886 11.0066 5 
15988 1 20.6857 27.5396 -0.868601 6.66093 5 
16072 1 20.7532 24.5866 -14.9139 0.000121441 1 
16074 1 22.036 23.492 -12.5897 0.0003158 1 
16075 1 22.6774 26.1429 -13.4646 0.000194161 1 
16076 1 21.1961 25.7409 -11.0452 0.000571065 1 
16077 1 23.96 25.0506 -11.1367 0.00048739 1 
16078 1 22.4818 24.6526 -8.70514 0.00162949 1 
16079 1 23.1219 27.3013 -9.59191 0.000626743 1 
16080 1 21.6452 26.9017 -7.17104 0.0015172 1 
16081 1 24.4094 26.2205 -7.25153 0.00211075 1 
16082 1 22.9366 25.8378 -4.82468 0.0192842 1 
16083 1 23.5749 28.4775 -5.71473 0.00315231 1 
16084 1 22.086 28.0758 -3.3064 0.0659852 1 
16085 1 24.8902 27.4365 -3.37372 0.0531264 1 
16086 1 23.415 27.1421 -1.02048 1.72352 5 
16087 1 23.9978 29.7208 -1.84984 0.61638 1 
16088 1 24.8492 28.7813 0.669417 6.634 5 
16180 1 25.4445 25.4477 -13.5624 0.000166552 1 
16181 1 26.0853 28.0987 -14.4356 9.43836e-05 1 
16182 1 24.6008 27.7001 -12.0148 0.000255925 1 
16183 1 27.3657 27.0049 -12.1146 0.000243678 1 
16184 1 25.8836 26.6103 -9.68474 0.000588726 1 
16185 1 26.5234 29.2587 -10.565 0.000409444 1 
16186 1 25.0494 28.8642 -8.13623 0.00137777 1 
16187 1 27.8051 28.1711 -8.23297 0.00138235 1 
16188 1 26.3437 27.7895 -5.78807 0.00831845 1 
16189 1 26.9788 30.4265 -6.67319 0.00788364 1 
16190 1 25.51 30.0571 -4.25188 0.00937556 1 
16191 1 28.2692 29.3371 -4.29873 0.0830097 1 
16192 1 26.7939 28.9798 -1.89354 0.772331 5 
16193 1 27.4375 31.6335 -2.79407 0.150625 1 
16194 1 26.0232 31.0711 -0.292756 7.60228 5 
16195 1 28.7936 30.6357 -0.581833 8.91629 5 
16293 1 28.8545 27.4008 -14.537 8.8069e-05 1 
16295 1 28.0064 29.6557 -12.9891 0.000145914 1 
16296 1 30.7743 28.9578 -13.0929 0.000147512 1 
16297 1 29.2854 28.5632 -10.6682 0.000418933 1 
16298 1 29.9269 31.2143 -11.5434 0.000216856 1 
16299 1 28.4443 30.8201 -9.11622 0.00104449 1 
16300 1 31.204 30.1233 -9.22483 0.00077787 1 
16301 1 29.7203 29.7344 -6.78653 0.00676275 1 
16302 1 30.3661 32.3887 -7.67312 0.00169364 1 
16303 1 28.8915 32.0128 -5.23985 0.0148878 1 
16304 1 31.6539 31.3067 -5.37124 0.0109986 1 
16305 1 30.1951 30.9285 -2.96889 0.133109 1 
16306 1 30.8411 33.6032 -3.81471 0.046949 1 
16307 1 29.431 33.2709 -1.45202 1.36671 5 
16308 1 32.1622 32.4734 -1.56173 0.370505 1 
16309 1 31.2309 34.8819 0.148721 5.7391 5 
16417 1 31.4156 31.6098 -13.9637 7.58498e-05 1 
16418 1 34.187 30.9106 -14.0679 9.54645e-05 1 
16419 1 32.6936 30.5163 -11.6504 0.000246835 1 
16420 1 33.3361 33.1683 -12.5191 0.000138818 1 
16421 1 31.848 32.7755 -10.0985 0.000380368 1 
16422 1 34.6139 32.0773 -10.2083 0.000471373 1 
16423 1 33.1285 31.6878 -7.78816 0.00201609 1 
16424 1 33.7705 34.3376 -8.64599 0.00105107 1 
16425 1 32.2977 33.9568 -6.22043 0.00553022 1 
16426 1 35.0505 33.252 -6.32685 0.00562007 1 
16427 1 33.6008 32.868 -3.90577 0.038067 1 
16428 1 34.2181 35.512 -4.71848 0.0148973 1 
16429 1 32.7745 35.1445 -2.25566 0.183847 1 
16430 1 35.4916 34.3773 -2.35266 0.160803 1 
16431 1 33.9522 33.9161 0.133091 5.39991 5 
16545 1 34.8284 33.563 -14.935 5.81687e-05 1 
16547 1 36.1064 32.4697 -12.625 0.000194337 1 
16548 1 36.7479 35.1214 -13.4888 0.000135804 1 
16549 1 35.2557 34.7282 -11.0705 0.000356868 1 
16550 1 38.0229 34.0309 -11.1787 0.000429322 1 
16551 1 36.5293 33.6405 -8.75813 0.00149077 1 
16552 1 133.021 0.0369649 -7.17528 0.00348993 1 
16553 1 38.4351 35.2062 -7.30231 0.0060262 1 
16554 1 36.952 34.8014 -4.8353 0.0400197 1 
16676 1 39.5199 34.4221 -13.5924 0.000163355 1 
16677 1 39.9356 35.5943 -9.73059 0.00089523 1 
18562 1 1.34297 5.70925 -11.3446 0.000512306 1 
18563 1 0.490836 7.96221 -9.81607 0.00122343 1 
18564 1 1.78733 6.85745 -7.47922 0.00383571 1 
18565 1 0.299723 6.45738 -5.09837 0.0102983 1 
18566 1 0.929177 9.10719 -5.9761 0.0072057 1 
18567 1 2.23332 8.01529 -3.61106 0.0369841 1 
18568 1 0.717701 7.61524 -1.30019 4.69781 5 
18569 1 1.31476 10.2405 -2.09915 0.214359 1 
18570 1 2.64235 8.92545 0.403401 7.30678 5 
18593 1 2.82802 6.10972 -13.7526 0.000173835 1 
18594 1 3.46431 8.76257 -14.6215 0.000148122 1 
18595 1 1.97681 8.36298 -12.2148 0.000411427 1 
18596 1 4.74944 7.66077 -12.2944 0.000361512 1 
18597 1 3.26634 7.25924 -9.88242 0.00102702 1 
18598 1 3.89814 9.91066 -10.7576 0.000890198 1 
18599 1 2.41404 9.50804 -8.35462 0.00343582 1 
18600 1 5.18507 8.80755 -8.41306 0.00224326 1 
18601 1 3.71025 8.40145 -5.99131 0.016159 1 
18602 1 4.32116 11.056 -6.89719 0.00410283 1 
18603 1 2.81791 10.6559 -4.49577 0.0215263 1 
18604 1 5.58831 9.95558 -4.5243 0.0228307 1 
18605 1 4.06747 9.56157 -2.05551 0.280425 1 
18606 1 4.68324 12.2073 -3.08464 0.113107 1 
18607 1 3.03964 11.9282 -0.692733 7.06573 5 
18608 1 5.85373 11.2285 -0.739632 6.52282 5 
18640 1 6.23617 8.06081 -14.7092 0.000126057 1 
18642 1 5.38566 10.3119 -13.167 0.00032762 1 
18643 1 8.15648 9.61167 -13.2525 0.000276688 1 
18644 1 6.66985 9.21017 -10.8326 0.00076854 1 
18645 1 7.30812 11.8593 -11.7122 0.000751497 1 
18646 1 5.8181 11.4567 -9.30187 0.00175921 1 
18647 1 8.59237 10.7579 -9.36957 0.00192736 1 
18648 1 7.10095 10.356 -6.94798 0.00523507 1 
18649 1 7.74614 13.0016 -7.85368 0.00474969 1 
18650 1 6.23865 12.6033 -5.46528 0.0148987 1 
18651 1 9.03575 11.9108 -5.4913 0.0146573 1 
18652 1 7.49082 11.5326 -3.11974 0.071746 1 
18653 1 8.18041 14.1762 -4.04714 0.0380257 1 
18654 1 6.61928 13.8093 -1.76776 3.93762 5 
18655 1 9.42795 13.1342 -1.71537 3.41361 5 
18656 1 8.51254 15.2718 -0.132644 6.36018 2 
18696 1 8.79638 12.2619 -14.1271 0.000251802 1 
18697 1 11.5657 11.5642 -14.2177 0.000220658 1 
18698 1 10.0779 11.1616 -11.7943 0.00060757 1 
18699 1 10.72 13.811 -12.6742 0.00053572 1 
18700 1 9.23484 13.4055 -10.2582 0.00185533 1 
18701 1 12.0009 12.7125 -10.3334 0.00123116 1 
18702 1 10.5218 12.3067 -7.90316 0.00499818 1 
18703 1 11.1632 14.9527 -8.79777 0.00392892 1 
18704 1 9.68198 14.5534 -6.39856 0.00899067 1 
18705 1 12.4476 13.8584 -6.41898 0.0149449 1 
18706 1 10.9729 13.4802 -4.01339 0.0489622 1 
18707 1 11.5954 16.1056 -4.90492 0.0197858 1 
18708 1 10.0886 15.7351 -2.50289 0.110087 1 
18709 1 12.8247 15.0359 -2.43697 0.210332 1 
18710 1 11.2555 14.4621 0.0102517 6.65313 5 
18711 1 11.9487 17.2408 -0.874897 1.6568 5 
18761 1 13.4862 13.1171 -12.7625 0.000448263 1 
18762 1 14.1301 15.7672 -13.6412 0.000342196 1 
18763 1 12.6439 15.3614 -11.2191 0.00100482 1 
18764 1 15.4055 14.6722 -11.3058 0.000820076 1 
18765 1 13.9205 14.2671 -8.86743 0.00234165 1 
18766 1 14.566 16.9151 -9.76259 0.00165832 1 
18767 1 13.0797 16.5065 -7.3348 0.00396002 1 
18768 1 15.8348 15.8286 -7.40165 0.00532846 1 
18769 1 14.3365 15.4271 -4.94395 0.0191496 1 
18770 1 14.9918 18.0717 -5.87923 0.00770087 1 
18771 1 13.4715 17.6684 -3.43455 0.0463828 1 
18772 1 16.26 17.0342 -3.54341 0.0473367 1 
18773 1 14.7669 16.6336 -1.14435 6.19634 5 
18774 1 15.3996 19.2661 -2.00409 0.143761 1 
18775 1 13.7879 19.0229 0.411743 8.88428 5 
18776 1 16.8817 18.3541 0.401962 7.21704 5 
18832 1 16.8956 15.0744 -13.7364 0.000306958 1 
18833 1 17.5416 17.7251 -14.6131 0.000197159 1 
18834 1 16.0524 17.3219 -12.1897 0.000562599 1 
18835 1 18.8157 16.6328 -12.2869 0.000501533 1 
18836 1 17.3241 16.2319 -9.85105 0.00147037 1 
18837 1 17.9769 18.881 -10.7397 0.000799514 1 
18838 1 16.489 18.4759 -8.31022 0.00243518 1 
18839 1 19.2501 17.8013 -8.40501 0.00165064 1 
18840 1 17.7635 17.4084 -5.96351 0.00492377 1 
18841 1 18.424 20.0486 -6.85958 0.00414749 1 
18842 1 16.9348 19.6584 -4.4341 0.0156177 1 
18843 1 19.7009 19.0061 -4.51405 0.0213783 1 
18844 1 18.1955 18.6584 -2.09195 0.25666 1 
18845 1 18.8984 21.2359 -2.92878 0.201954 1 
18846 1 17.271 20.8742 -0.562709 2.42673 5 
18847 1 20.0084 20.0871 -0.4893 6.03133 5 
18909 1 20.3091 17.0314 -14.7137 0.000184214 1 
18911 1 19.465 19.2828 -13.1652 0.000288979 1 
18912 1 22.2312 18.5912 -13.2683 0.000265679 1 
18913 1 20.7391 18.1962 -10.8404 0.000668041 1 
18914 1 21.3904 20.8435 -11.7154 0.000458379 1 
18915 1 19.9068 20.4461 -9.28707 0.00144016 1 
18916 1 22.665 19.7638 -9.38845 0.00148161 1 
18917 1 21.1833 19.381 -6.94761 0.0059879 1 
18918 1 21.8391 22.0107 -7.81616 0.00423355 1 
18919 1 20.3682 21.6213 -5.3711 0.0124084 1 
18920 1 23.1181 20.9492 -5.43997 0.0325025 1 
18921 1 21.6357 20.5965 -2.95305 0.199488 1 
18922 1 22.278 23.1973 -3.88299 0.161166 1 
18923 1 20.8984 22.6759 -1.17696 3.89251 5 
18924 1 23.624 22.2682 -1.62454 6.12856 5 
18925 1 22.6385 24.7306 -0.0405798 8.12596 5 
18997 1 22.8784 21.2405 -14.1395 0.000167042 1 
18998 1 25.6472 20.5448 -14.2446 0.000173132 1 
18999 1 24.154 20.1528 -11.8208 0.000477283 1 
19000 1 24.801 22.799 -12.69 0.000280624 1 
19001 1 23.3151 22.4051 -10.2596 0.0009302 1 
19002 1 26.075 21.7126 -10.3688 0.000895826 1 
19003 1 24.5866 21.3298 -7.92394 0.00406905 1 
19004 1 25.2373 23.9661 -8.80166 0.00161868 1 
19005 1 23.7581 23.5788 -6.34638 0.0100773 1 
19006 1 26.5144 22.8904 -6.47162 0.00350075 1 
19007 1 25.0592 22.5336 -4.01307 0.0406037 1 
19008 1 25.7004 25.1615 -4.90552 0.0142333 1 
19009 1 24.2359 24.8583 -2.46557 0.144959 1 
19010 1 26.9676 24.1104 -2.55361 0.0719219 1 
19011 1 25.5829 23.9012 -0.0885729 7.33289 2 
19012 1 26.162 26.4563 -0.92689 0.823092 5 
19093 1 27.5682 22.102 -12.7979 0.000296526 1 
19094 1 28.2123 24.7503 -13.6664 0.000164747 1 
19095 1 26.7219 24.3567 -11.24 0.000484957 1 
19096 1 29.488 23.6571 -11.3531 0.00043029 1 
19097 1 27.9954 23.2685 -8.92063 0.00122592 1 
19098 1 28.642 25.9139 -9.79331 0.000775229 1 
19099 1 27.1638 25.5268 -7.34998 0.00238334 1 
19100 1 29.911 24.8208 -7.47604 0.00348806 1 
19101 1 28.4379 24.4394 -5.00691 0.0132088 1 
19102 1 29.0772 27.0821 -5.89349 0.00845493 1 
19103 1 27.6422 26.7132 -3.39982 0.0749715 1 
19104 1 30.3413 25.9817 -3.55983 0.0502671 1 
19105 1 28.8735 25.5832 -1.00443 1.31501 5 
19106 1 29.5293 28.2046 -1.81322 1.79689 5 
19107 1 27.6729 28.2651 0.727571 9.31578 5 
19108 1 30.1555 26.9925 0.984303 7.42316 5 
19195 1 30.9838 24.0497 -13.7743 0.000158647 1 