ITEM: TIMESTEP
0
ITEM: NUMBER OF ATOMS
4597
ITEM: BOX BOUNDS xy xz yz pp pp ss
0 260.660366373 209.752655759
0 50.538286495 0
-146.5918095678903 158.1327329750815 0
ITEM: ATOMS id type x y z c_csym c_cna 
1 1 50.8764 0.0506921 -3.22712 0.480994 1 
2 1 51.9536 2.65838 -3.47383 0.291539 1 
3 1 2.71743 0.390747 -3.90496 0.0975125 1 
4 1 52.9698 1.05644 -1.29136 5.80042 5 
5 1 55.6501 1.3027 -1.86705 5.92541 5 
6 1 51.2322 3.30838 -0.998557 6.43033 5 
7 1 52.28 5.8189 -0.925369 6.22827 5 
8 1 53.9995 3.65021 -1.59761 1.14488 5 
9 1 57.6307 2.32289 0.268318 5.84976 5 
10 1 51.5859 0.634917 -10.5634 0.000927544 1 
11 1 50.7774 1.21739 -7.90853 0.00539837 1 
12 1 53.5385 1.53745 -8.6679 0.00369036 1 
13 1 6.18989 0.135878 -7.26852 0.00448129 1 
14 1 51.9116 3.84386 -8.1337 0.0035874 1 
15 1 51.0929 4.42452 -5.47926 0.0228084 1 
16 1 52.7482 2.11613 -6.04198 0.0291255 1 
17 1 53.867 4.74281 -6.22265 0.00956665 1 
18 1 55.5008 2.44632 -6.74885 0.00870972 1 
19 1 54.7397 3.00118 -4.11617 0.0881573 1 
20 1 5.42144 0.72313 -4.60538 0.0387634 1 
21 1 57.4564 3.38159 -4.79253 0.0293764 1 
22 1 8.11831 1.056 -5.31987 0.00967366 1 
23 1 7.34194 1.69 -2.63048 0.188498 1 
24 1 10.0133 1.97122 -3.32909 0.0987981 1 
25 1 10.7541 0.2331 -1.09963 1.65248 5 
26 1 13.4876 0.46655 -1.73023 3.59138 5 
27 1 52.2465 7.04113 -5.67576 0.0175778 1 
28 1 51.409 7.5884 -3.05574 0.195625 1 
29 1 53.0456 5.30973 -3.58777 0.108668 1 
30 1 54.1972 7.95371 -3.71438 0.283569 1 
31 1 55.7953 5.66016 -4.27035 0.0440921 1 
32 1 55.0516 6.33269 -1.58022 5.92775 5 
33 1 56.7056 3.98037 -2.13767 0.209105 1 
34 1 57.7328 6.64099 -2.37918 5.95184 5 
35 1 59.4025 4.34091 -2.81514 0.290501 1 
36 1 58.5343 5.06774 -0.192456 7.06616 5 
37 1 60.1857 2.73792 -0.606294 6.08022 5 
38 1 61.3831 5.36777 -0.408534 8.96397 5 
39 1 62.7806 2.93945 -1.4593 6.82048 5 
40 1 15.2536 1.69913 0.0366352 10.198 5 
41 1 101.876 12.5035 -2.68841 0.0888505 1 
42 1 52.5248 10.1891 -3.22784 0.0608468 1 
43 1 51.5771 10.7301 -0.588065 7.35323 5 
44 1 53.3282 8.40314 -1.03815 6.96608 2 
45 1 54.3293 11.0597 -1.25782 7.78283 5 
46 1 56.3324 8.86351 -1.34193 10.452 5 
47 1 57.7241 8.63225 1.34954 6.26047 5 
48 1 59.523 7.72275 -0.592623 8.95073 5 
49 1 102.104 15.7129 -0.371907 7.32676 5 
50 1 103.743 13.3528 -0.603588 5.62673 5 
52 1 4.22646 0.370795 -13.9976 0.000122925 1 
53 1 50.7754 2.35797 -12.6935 0.000288426 1 
54 1 51.9068 4.98199 -12.9229 0.000181397 1 
55 1 53.5216 2.67673 -13.4614 0.000174379 1 
56 1 52.7185 3.26064 -10.7924 0.000732545 1 
57 1 54.3339 0.954609 -11.3264 0.000567798 1 
58 1 55.4633 3.58032 -11.5489 0.000304573 1 
59 1 6.16634 1.27418 -12.084 0.000233201 1 
60 1 56.2799 1.8596 -9.41118 0.00111448 1 
61 1 59.0113 2.18063 -10.1613 0.0004048 1 
62 1 8.90941 0.463201 -8.01338 0.00193277 1 
63 1 11.6329 0.777555 -8.7647 0.00134295 1 
64 1 51.0994 5.56441 -10.2522 0.000558985 1 
65 1 52.231 8.18653 -10.4772 0.000309595 1 
66 1 53.8484 5.88436 -11.0132 0.000331935 1 
67 1 53.0433 6.46481 -8.34446 0.00106621 1 
68 1 54.6665 4.16552 -8.87881 0.00173623 1 
69 1 55.79 6.78916 -9.09213 0.00153425 1 
70 1 57.4029 4.48729 -9.62498 0.000527508 1 
71 1 56.6117 5.07986 -6.94152 0.00535025 1 
72 1 58.2197 2.77153 -7.47891 0.00243548 1 
73 1 59.3341 5.40073 -7.69408 0.00156704 1 
74 1 60.9417 3.08915 -8.22812 0.00164192 1 
75 1 60.1446 3.68665 -5.5383 0.0147015 1 
76 1 10.8262 1.37756 -6.06206 0.00924755 1 
77 1 62.8585 3.98762 -6.27579 0.0196582 1 
78 1 13.5444 1.67505 -6.82272 0.00775592 1 
79 1 12.7349 2.24833 -4.07766 0.133061 1 
80 1 15.4437 2.55618 -4.90568 0.0148003 1 
81 1 17.0591 0.255573 -5.42987 0.0231267 1 
82 1 16.1611 0.815615 -2.70623 0.34782 1 
83 1 18.9677 1.12148 -3.50134 0.0963012 1 
84 1 51.4235 8.76101 -7.80899 0.00174795 1 
85 1 52.5548 11.3872 -8.02723 0.00152098 1 
86 1 54.1694 9.08669 -8.56505 0.000901683 1 
87 1 53.3586 9.6553 -5.89432 0.0127472 1 
88 1 54.9838 7.36879 -6.42063 0.00637361 1 
89 1 56.0936 9.99645 -6.64407 0.0133097 1 
90 1 57.7187 7.70749 -7.15013 0.00782876 1 
91 1 56.8986 8.31315 -4.4617 0.31054 1 
92 1 58.5486 6.01484 -4.99963 0.0246483 1 
93 1 59.6583 8.62062 -5.22687 0.0475801 1 
94 1 61.26 6.32223 -5.77326 0.0185717 1 
95 1 60.5372 6.94007 -3.01286 0.616363 1 
96 1 62.0367 4.62527 -3.60138 0.359375 1 
97 1 63.1919 7.26347 -3.87091 0.0844461 1 
98 1 64.7638 4.89715 -4.38927 0.0334412 1 
99 1 63.8787 5.59778 -1.7494 5.81269 5 
100 1 14.6109 3.19813 -2.2193 0.204356 1 
101 1 66.733 5.75778 -2.54709 0.185772 1 
102 1 17.3455 3.42198 -3.02307 0.0635887 1 
103 1 67.4794 4.10083 -0.24739 5.60187 5 
104 1 18.0058 1.66671 -0.844314 7.99927 5 
105 1 19.1869 4.29123 -1.13473 4.01835 5 
106 1 20.8231 2.01773 -1.58238 6.48941 2 
107 1 25.0965 1.25956 -0.484134 5.73004 5 
108 1 101.861 13.694 -7.48029 0.00139752 1 
109 1 51.7541 11.9513 -5.35581 0.00531208 1 
110 1 103.806 14.5896 -5.55221 0.011257 1 
111 1 54.4781 12.272 -6.09503 0.0183141 1 
112 1 53.6647 12.8342 -3.40418 0.066933 1 
113 1 55.2714 10.5269 -3.91534 0.358577 1 
114 1 56.3437 13.2057 -4.2141 0.086483 1 
115 1 57.9961 10.9379 -4.74207 0.0624541 1 
116 1 57.0296 11.519 -2.04155 6.45593 5 
117 1 58.8362 9.34785 -2.62311 2.02614 5 
118 1 59.8719 11.9014 -2.80527 5.85994 5 
119 1 61.6192 9.56907 -3.34843 0.660115 5 
120 1 61.268 10.6886 -0.868293 5.5301 5 
121 1 62.4076 8.02093 -1.04416 6.62348 5 
122 1 63.8224 10.5035 -1.56699 7.26437 5 
123 1 65.1699 8.14818 -1.94283 1.59859 5 
124 1 65.898 6.37692 -0.0427961 8.24888 5 
125 1 67.2883 9.01487 0.00376652 7.0423 5 
126 1 68.7171 6.62135 -0.572429 0.72757 1 
127 1 102.219 16.8969 -5.01293 0.00991961 1 
128 1 103.043 15.1294 -2.88044 0.152986 1 
129 1 104.121 17.8088 -3.06658 0.0702534 1 
130 1 105.731 15.5093 -3.57656 0.115136 1 
131 1 104.872 16.067 -0.857301 0.485354 1 
132 1 106.341 13.7702 -1.42685 4.08817 5 
133 1 107.598 16.4598 -1.5656 5.06679 5 
134 1 109.109 14.0906 -2.36044 6.95248 2 
135 1 58.7394 10.8019 -0.0657304 9.30753 5 
136 1 109.863 15.5498 -0.298109 10.9902 5 
137 1 60.5355 13.3416 -0.285228 9.59388 5 
138 1 102.605 20.1701 -2.50052 0.368532 1 
139 1 101.743 20.8375 0.119981 4.68705 5 
140 1 103.383 18.5047 -0.316519 6.09255 5 
141 1 104.603 21.113 -0.0403448 10.6825 5 
142 1 105.948 18.7326 -1.19647 6.91329 5 
143 1 109.159 17.8487 1.02086 7.62771 5 
144 1 102.788 23.4513 -0.254137 11.4162 5 
154 1 6.96598 0.689101 -14.7619 6.46853e-05 1 
161 1 54.6509 5.30049 -13.6874 9.66748e-05 1 
162 1 56.2632 2.99506 -14.2248 8.41544e-05 1 
163 1 57.3904 5.61845 -14.451 6.17667e-05 1 
164 1 59.0009 3.31276 -14.9891 4.87057e-05 1 
165 1 58.2004 3.89907 -12.3067 0.000143248 1 
166 1 8.90144 1.5926 -12.8441 0.000125469 1 
167 1 60.9341 4.21569 -13.0701 0.000115526 1 
168 1 11.6348 1.90936 -13.6088 0.000114421 1 
169 1 10.8327 2.4964 -10.9196 0.000397465 1 
170 1 12.4387 0.189472 -11.4582 0.000297594 1 
171 1 13.5623 2.81024 -11.6878 0.00043026 1 
172 1 15.1713 0.505994 -12.228 0.000302651 1 
173 1 14.3607 1.08934 -9.52973 0.00142797 1 
174 1 17.0954 1.40386 -10.3111 0.000571013 1 
176 1 51.4219 9.91019 -12.6093 0.000125406 1 
177 1 53.0366 7.60514 -13.1497 0.000101896 1 
178 1 54.1646 10.2286 -13.3758 6.53454e-05 1 
179 1 55.7784 7.92355 -13.9136 6.68446e-05 1 
180 1 54.9753 8.50715 -11.2367 0.000230054 1 
181 1 56.5896 6.20409 -11.7705 0.000241411 1 
182 1 57.7142 8.82699 -11.9966 0.000178116 1 
183 1 59.3248 6.52213 -12.532 0.000136075 1 
184 1 58.5233 7.11154 -9.84473 0.000827972 1 
185 1 60.1335 4.80485 -10.3825 0.000320036 1 
186 1 61.2558 7.42641 -10.6124 0.000288053 1 
187 1 62.8634 5.11782 -11.1498 0.000365697 1 
188 1 62.0622 5.70816 -8.45611 0.00238555 1 
189 1 63.6633 3.39776 -8.98965 0.00191039 1 
190 1 64.7894 6.01821 -9.23604 0.000554251 1 
191 1 15.485 3.7069 -9.77344 0.000714087 1 
192 1 65.5803 4.29167 -7.07681 0.00249559 1 
193 1 16.2758 1.98004 -7.61026 0.00235378 1 
194 1 68.3133 4.59674 -7.8734 0.00247265 1 
195 1 19.0183 2.29796 -8.40435 0.00155853 1 
196 1 18.1852 2.85431 -5.70822 0.013387 1 
197 1 19.8146 0.586209 -6.23758 0.0087988 1 
198 1 20.9448 3.19302 -6.51148 0.00724185 1 
199 1 22.5716 0.907802 -7.01983 0.00470141 1 
200 1 21.735 1.50677 -4.32786 0.0425245 1 
201 1 24.5059 1.82118 -5.12149 0.0161376 1 
202 1 25.3645 0.147213 -2.98128 0.702741 5 
203 1 28.1589 0.417958 -3.83144 0.225143 1 
204 1 101.846 14.8413 -12.288 0.000123442 1 
205 1 52.5506 12.5345 -12.8345 7.60111e-05 1 
206 1 102.655 13.1164 -10.1573 0.00031761 1 
207 1 53.3596 10.8107 -10.7007 0.000222974 1 
208 1 105.393 13.4366 -10.9235 0.000210605 1 
209 1 56.1003 11.1313 -11.4619 0.000120839 1 
210 1 55.2913 11.7141 -8.78571 0.00143775 1 
211 1 56.9104 9.41228 -9.31678 0.00116003 1 
212 1 58.0321 12.0372 -9.54544 0.000465335 1 
213 1 59.6468 9.73396 -10.0779 0.000317528 1 
214 1 58.8395 10.3236 -7.39611 0.00453966 1 
215 1 60.4526 8.02407 -7.92466 0.000991364 1 
216 1 61.5784 10.6463 -8.16005 0.00173367 1 
217 1 63.1845 8.33259 -8.7003 0.00138158 1 
218 1 62.389 8.94613 -6.01736 0.0122819 1 
219 1 63.987 6.61577 -6.54598 0.00448973 1 
220 1 65.124 9.23589 -6.80704 0.0124163 1 
221 1 66.718 6.91512 -7.33321 0.00112245 1 
222 1 65.9289 7.51149 -4.64302 0.0175961 1 
223 1 67.5099 5.17805 -5.18823 0.0110431 1 
224 1 68.6564 7.8026 -5.43256 0.00455681 1 
225 1 70.2278 5.48598 -5.99389 0.0165253 1 
226 1 69.4609 6.06041 -3.26985 0.073769 1 
227 1 20.0736 3.7412 -3.85224 0.0791294 1 
228 1 72.1205 6.37484 -4.13948 0.141863 1 
229 1 22.883 4.10443 -4.62134 0.0714736 1 
230 1 21.9693 4.60739 -2.04214 6.62275 5 
231 1 23.652 2.44691 -2.41423 5.21897 5 
232 1 24.7802 5.02768 -2.55711 3.86916 5 
233 1 26.4505 2.71594 -3.17285 4.7924 5 
234 1 24.4343 3.92407 0.0565182 9.60178 5 
235 1 27.6369 1.05405 -1.24865 7.98772 5 
236 1 28.6197 3.66131 -1.53004 5.91535 5 
237 1 30.2883 1.28879 -1.82959 5.87434 5 
238 1 32.2632 2.30848 0.334536 6.05683 5 
239 1 102.173 18.0505 -9.82589 0.000337981 1 
240 1 103.783 15.7429 -10.3769 0.00036012 1 
241 1 102.993 16.325 -7.69148 0.00217895 1 
242 1 104.589 14.0139 -8.24204 0.00239426 1 
243 1 105.712 16.6489 -8.46314 0.00252848 1 
244 1 107.322 14.342 -9.01132 0.00091093 1 
245 1 106.499 14.9256 -6.33348 0.0202396 1 
246 1 57.212 12.6269 -6.87505 0.00642988 1 
247 1 109.242 15.2525 -7.09709 0.00540969 1 
248 1 59.9602 12.9494 -7.62521 0.0032516 1 
249 1 59.1316 13.5558 -4.96089 0.0659639 1 
250 1 60.763 11.2511 -5.48222 0.0250998 1 
251 1 61.882 13.8579 -5.66386 0.0255491 1 
252 1 63.5046 11.5685 -6.22831 0.0309464 1 
253 1 62.6834 12.1567 -3.48778 4.99231 5 
254 1 64.3875 9.8438 -4.15967 0.176786 1 
255 1 65.4855 12.4384 -4.35731 0.115231 1 
256 1 67.0886 10.1231 -4.91097 0.0375682 1 
257 1 66.4531 10.7346 -2.17651 0.398766 1 
258 1 67.8838 8.37025 -2.73328 0.0945381 1 
259 1 69.0239 11.0286 -3.01582 0.495651 1 
260 1 70.6006 8.67965 -3.53914 0.0437472 1 
261 1 69.8046 9.28492 -0.898585 6.70226 5 
262 1 71.3832 6.96318 -1.29505 5.02555 5 
263 1 72.486 9.5899 -1.59783 1.3532 5 
264 1 74.0029 7.31474 -2.36734 6.26588 5 
265 1 73.6577 6.08591 0.00544857 11.7522 5 
266 1 75.894 7.76632 -0.469887 11.5636 5 
267 1 26.8064 5.62665 -0.687385 10.2781 5 
268 1 102.496 21.2654 -7.35639 0.0017304 1 
269 1 104.112 18.9543 -7.90932 0.00156002 1 
270 1 103.322 19.5422 -5.23394 0.0204243 1 
271 1 104.93 17.232 -5.7511 0.0134493 1 
272 1 106.039 19.8619 -5.97793 0.0109665 1 
273 1 107.629 17.5621 -6.55159 0.0180521 1 
274 1 106.862 18.1393 -3.79466 0.146458 1 
275 1 108.378 15.8431 -4.4408 0.146028 1 
276 1 109.53 18.4822 -4.63172 0.134925 1 
277 1 111.17 16.1313 -5.16482 0.0736107 1 
278 1 110.272 16.7853 -2.62546 6.45171 5 
279 1 61.0155 14.4461 -2.87532 4.05114 5 
280 1 113.072 16.9899 -3.18551 0.162039 1 
281 1 63.7906 14.7617 -3.74575 0.243754 1 
282 1 62.9471 15.1624 -0.900765 10.5117 5 
283 1 64.8483 13.1317 -1.7983 6.1522 5 
284 1 65.7986 15.7811 -1.78628 2.2011 5 
285 1 67.5574 13.3383 -2.40373 0.752344 1 
286 1 68.5032 11.652 0.257229 10.0786 5 
287 1 69.4144 14.3592 -0.401613 5.20136 5 
288 1 70.8552 11.9884 -1.19922 5.68162 5 
289 1 101.716 21.8639 -4.65908 0.0223057 1 
290 1 102.815 24.4757 -4.846 0.0610562 1 
291 1 104.434 22.1866 -5.45262 0.0268947 1 
292 1 103.73 22.7673 -2.70896 0.624205 1 
293 1 105.22 20.467 -3.31819 0.515 1 
294 1 106.386 23.1284 -3.54157 0.13216 1 
295 1 107.961 20.7509 -4.05808 0.1255 1 
296 1 107.027 21.4384 -1.48326 6.14537 5 
297 1 108.74 19.0984 -1.70911 2.05945 5 
298 1 109.933 21.6203 -2.22967 0.36863 1 
299 1 111.449 19.3137 -2.68676 0.163101 1 
300 1 110.746 19.9387 0.158856 7.29685 5 
301 1 112.041 17.4901 -0.534234 9.95617 5 
302 1 113.303 20.1587 -0.775074 4.85514 5 
303 1 114.912 17.8378 -1.25097 6.75412 2 
304 1 119.186 17.0523 -0.138543 6.47713 5 
305 1 152.907 25.1751 -2.16765 2.42107 5 
306 1 153.986 27.7132 -2.42399 5.24347 5 
307 1 155.699 25.4108 -2.98836 0.6672 5 
308 1 155.414 26.5107 -0.489563 5.79409 5 
309 1 105.589 23.8306 -0.714568 5.45369 5 
310 1 157.959 26.314 -1.25224 7.93156 5 
311 1 108.392 23.9731 -1.57087 7.11437 5 
312 1 111.843 22.5522 -0.241364 3.72631 5 
313 1 153.076 31.35 0.00306804 11.7557 5 
314 1 154.753 29.1812 0.0485454 9.59786 5 
356 1 63.6672 4.53118 -13.8402 0.000112841 1 
357 1 14.3686 2.22579 -14.3798 0.000104414 1 
358 1 66.4019 4.8472 -14.6161 6.93409e-05 1 
360 1 16.2961 3.12518 -12.4663 0.00020805 1 
361 1 17.9078 0.823004 -13.0052 0.000148416 1 
362 1 19.0348 3.44198 -13.2462 0.000112289 1 
363 1 20.6475 1.14047 -13.7836 7.68332e-05 1 
364 1 19.8368 1.72156 -11.0941 0.000293049 1 
365 1 22.5804 2.04036 -11.8737 0.000163985 1 
366 1 23.3843 0.326368 -9.71986 0.000646236 1 
367 1 26.1286 0.644056 -10.5016 0.000181128 1 
375 1 56.9047 10.5468 -14.1408 4.43316e-05 1 
376 1 58.5165 8.2413 -14.6788 4.65296e-05 1 
377 1 59.6424 10.8643 -14.9079 3.2559e-05 1 
379 1 60.4497 9.14479 -12.7623 8.5076e-05 1 
380 1 62.0585 6.83799 -13.3009 8.43583e-05 1 
381 1 63.1839 9.46133 -13.5339 5.09635e-05 1 
382 1 64.7924 7.15378 -14.0756 6.66087e-05 1 
383 1 63.9877 7.7405 -11.3877 0.0001938 1 
384 1 65.5949 5.43133 -11.9273 0.000208286 1 
385 1 66.7215 8.05507 -12.168 0.000185469 1 
386 1 68.3306 5.74677 -12.7087 0.00015835 1 
387 1 67.5212 6.3292 -10.0226 0.000494013 1 
388 1 18.2221 4.02176 -10.5607 0.000496168 1 
389 1 70.2597 6.64495 -10.809 0.000442867 1 
390 1 20.966 4.33977 -11.3418 0.000311526 1 
391 1 71.0562 4.91606 -8.6663 0.00157382 1 
392 1 21.7686 2.61861 -9.18789 0.000857821 1 
393 1 22.9006 5.2371 -9.4409 0.00106335 1 
394 1 24.5164 2.94081 -9.96478 0.000407937 1 
395 1 23.7043 3.5198 -7.28417 0.00308757 1 
396 1 25.3223 1.23106 -7.81191 0.00123759 1 
397 1 26.4539 3.84365 -8.04918 0.00189087 1 
398 1 28.069 1.54975 -8.5924 0.00161415 1 
399 1 27.2624 2.14383 -5.90149 0.0316255 1 
400 1 30.0301 2.45185 -6.69311 0.011201 1 
401 1 31.6337 0.143575 -7.23414 0.00430357 1 
402 1 30.8833 0.724319 -4.57032 0.0674644 1 
403 1 33.5842 1.05596 -5.30324 0.0120586 1 
405 1 102.65 14.2566 -14.9689 3.81381e-05 1 
408 1 104.585 15.159 -13.0587 5.3e-05 1 
409 1 55.2912 12.8525 -13.6017 3.72684e-05 1 
410 1 107.325 15.4761 -13.8275 2.69492e-05 1 
411 1 58.0305 13.1701 -14.3684 3.28202e-05 1 
412 1 57.2251 13.7559 -11.6879 0.000107857 1 
413 1 58.8388 11.4507 -12.2249 0.000100466 1 
414 1 59.9639 14.0735 -12.452 0.000102074 1 
415 1 61.575 11.7682 -12.9919 7.46786e-05 1 
416 1 60.7712 12.3572 -10.3057 0.000466322 1 
417 1 62.3808 10.0504 -10.8464 0.000195674 1 
418 1 63.5054 12.6736 -11.0728 0.000356421 1 
419 1 65.1133 10.3654 -11.6218 0.000206184 1 
420 1 64.3092 10.9592 -8.93009 0.00186778 1 
421 1 65.9176 8.64245 -9.48283 0.000906916 1 
422 1 67.0445 11.2686 -9.71669 0.000484518 1 
423 1 68.6517 8.95565 -10.2677 0.000514795 1 
424 1 67.8558 9.54002 -7.58504 0.00269499 1 
425 1 69.4477 7.22527 -8.13004 0.00224042 1 
426 1 70.5837 9.85641 -8.37344 0.00151993 1 
427 1 72.1909 7.5422 -8.91704 0.00146445 1 
428 1 71.3724 8.12289 -6.25266 0.0144679 1 
429 1 72.9833 5.81149 -6.78189 0.00768747 1 
430 1 74.1261 8.4321 -7.02449 0.00472725 1 
431 1 75.7492 6.13187 -7.53369 0.00478325 1 
432 1 74.9207 6.68511 -4.89017 0.0915551 1 
433 1 25.6371 4.4216 -5.34747 0.0317506 1 
434 1 77.698 7.02758 -5.6145 0.0179711 1 
435 1 28.4012 4.74104 -6.1453 0.0135517 1 
436 1 27.5764 5.30827 -3.47197 0.289089 1 
437 1 29.2759 2.99168 -4.04906 0.176272 1 
438 1 30.3279 5.64621 -4.21282 0.0761357 1 
439 1 32.0066 3.37895 -4.76654 0.0316416 1 
440 1 31.2943 3.97161 -2.11819 0.315691 1 
441 1 32.8473 1.69099 -2.62091 0.273647 1 
442 1 33.9765 4.34193 -2.7913 0.23661 1 
443 1 35.5032 1.96793 -3.31622 0.100205 1 
444 1 34.7931 2.72868 -0.590823 6.10915 5 
445 1 36.2521 0.213192 -1.09941 1.76539 5 
446 1 37.3813 2.93477 -1.45005 6.64712 5 
447 1 38.9767 0.488392 -1.74702 3.52728 5 
448 1 40.7929 1.64273 0.0297959 9.81139 5 
449 1 102.165 19.1851 -14.6465 3.51425e-05 1 
450 1 102.973 17.4655 -12.5106 6.75342e-05 1 
451 1 104.099 20.0881 -12.7347 5.98767e-05 1 
452 1 105.712 17.7825 -13.2832 4.17811e-05 1 
453 1 104.908 18.3694 -10.5985 0.000221905 1 
454 1 106.519 16.0625 -11.1466 0.000140911 1 
455 1 107.645 18.6856 -11.37 0.00011427 1 
456 1 109.258 16.3788 -11.9128 0.000103684 1 
457 1 108.448 16.9677 -9.23218 0.000840888 1 
458 1 110.064 14.6611 -9.77027 0.000540747 1 
459 1 111.189 17.2795 -9.99263 0.000386593 1 
460 1 112.804 14.9768 -10.5304 0.000424754 1 
461 1 111.994 15.5627 -7.84158 0.00249647 1 
462 1 62.6999 13.2667 -8.37422 0.002772 1 
463 1 114.734 15.8791 -8.60432 0.00117482 1 
464 1 65.4355 13.5792 -9.15613 0.000939335 1 
465 1 64.6322 14.1725 -6.44926 0.0125566 1 
466 1 66.2485 11.8601 -7.03099 0.00485263 1 
467 1 67.3656 14.4865 -7.23757 0.010838 1 
468 1 68.9809 12.1703 -7.81833 0.00187063 1 
469 1 68.2023 12.7714 -5.14012 0.0445368 1 
470 1 69.7933 10.4374 -5.68368 0.00503755 1 
471 1 70.922 13.0702 -5.9262 0.00800875 1 
472 1 72.5179 10.7555 -6.48793 0.0063845 1 
473 1 71.7229 11.3231 -3.80089 0.0483732 1 
474 1 73.2878 9.03007 -4.3878 0.0907671 1 
475 1 74.465 11.6342 -4.5995 0.0142023 1 
476 1 76.0544 9.30801 -5.11492 0.0125494 1 
477 1 75.1977 9.8524 -2.46819 0.227311 1 
478 1 76.866 7.55101 -2.99064 0.316977 5 
479 1 77.9512 10.1797 -3.20117 0.0718217 1 
480 1 79.6461 7.9458 -3.65598 0.248419 1 
481 1 78.7123 8.36752 -1.00535 7.42741 2 
482 1 29.5785 6.32207 -1.51502 6.09291 5 
483 1 81.7278 8.85234 -1.37371 9.76336 5 
484 1 32.2766 6.63107 -2.3395 6.17438 5 
485 1 33.1196 5.03589 -0.145836 6.89482 5 
486 1 34.0908 7.70841 -0.587019 9.44773 5 
487 1 35.9522 5.37566 -0.460548 7.81837 5 
488 1 102.486 22.3915 -12.1841 0.000137928 1 
489 1 101.681 22.9781 -9.49007 0.000705399 1 
490 1 103.296 20.6749 -10.0454 0.00017747 1 
491 1 104.42 23.295 -10.2709 0.000404823 1 
492 1 106.033 20.9916 -10.8226 0.000132513 1 
493 1 105.231 21.5797 -8.13223 0.00114779 1 
494 1 106.838 19.2761 -8.68331 0.00124328 1 
495 1 107.968 21.8944 -8.91138 0.000470725 1 
496 1 109.577 19.5855 -9.45544 0.000459117 1 
497 1 108.766 20.18 -6.77189 0.00580292 1 
498 1 110.372 17.8651 -7.30542 0.00436327 1 
499 1 111.508 20.4764 -7.54355 0.00240621 1 
500 1 113.118 18.1743 -8.07203 0.00160038 1 
501 1 112.289 18.7358 -5.38164 0.0210753 1 
502 1 113.92 16.4603 -5.90298 0.00788671 1 
503 1 115.051 19.0661 -6.16144 0.0100303 1 
504 1 116.667 16.7739 -6.67349 0.00800919 1 
505 1 115.846 17.3723 -3.97 0.0689917 1 
506 1 66.5602 15.0577 -4.48602 0.170217 1 
507 1 118.594 17.6856 -4.77297 0.0223069 1 
508 1 69.3091 15.3943 -5.35168 0.0243651 1 
509 1 68.5621 15.998 -2.65946 0.583742 5 
510 1 70.1712 13.7108 -3.24057 0.131206 1 
511 1 71.3426 16.278 -3.53703 0.202434 1 
512 1 72.873 13.957 -4.05873 0.0407362 1 
513 1 72.1857 14.5535 -1.30543 7.69651 5 
514 1 73.6715 12.2134 -1.99019 0.212486 1 
515 1 74.8224 14.8083 -2.17704 7.26279 5 
516 1 76.4046 12.5109 -2.68023 0.0920037 1 
517 1 75.5412 13.1692 0.00922256 8.19188 5 
518 1 76.9931 10.7457 -0.571041 7.56219 5 
519 1 78.2738 13.3558 -0.598289 5.62626 5 
520 1 79.7536 11.0498 -1.24542 7.66526 5 
521 1 83.1725 8.62359 1.32768 6.23077 5 
522 1 153.714 25.5931 -9.72479 0.000597827 1 
523 1 152.903 26.1729 -7.02542 0.0047621 1 
524 1 103.614 23.888 -7.57356 0.00442894 1 
525 1 155.652 26.4973 -7.81757 0.00122063 1 
526 1 106.358 24.1976 -8.36303 0.0011783 1 
527 1 105.56 24.8006 -5.67406 0.015458 1 
528 1 107.168 22.4805 -6.21884 0.00758967 1 
529 1 108.312 25.0973 -6.47625 0.0129827 1 
530 1 109.912 22.7902 -7.00392 0.00103542 1 
531 1 109.113 23.3672 -4.32618 0.0323941 1 
532 1 110.71 21.0613 -4.86447 0.0141594 1 
533 1 111.863 23.6779 -5.08794 0.00813954 1 
534 1 113.433 21.3663 -5.64715 0.0162321 1 
535 1 112.67 21.9228 -2.93355 0.0997395 1 
536 1 114.176 19.6087 -3.51172 0.105606 1 
537 1 115.335 22.262 -3.76873 0.10066 1 
538 1 116.996 19.9825 -4.25207 0.0978514 1 
539 1 116.051 20.4691 -1.70111 7.21048 2 
540 1 117.765 18.3329 -2.03658 5.53287 5 
541 1 118.94 20.8883 -2.20443 5.88979 5 
542 1 120.543 18.5808 -2.84797 5.07715 5 
543 1 118.632 19.8343 0.393785 10.1244 5 
544 1 70.8 16.8295 -0.947323 8.01492 5 
545 1 122.709 19.3944 -1.22862 6.82316 5 
546 1 73.4562 17.1174 -1.54785 5.82162 5 
547 1 76.6441 15.7253 -0.374837 7.39136 5 
548 1 154.033 28.786 -7.28965 0.00322144 1 
549 1 153.212 29.3707 -4.62783 0.0709442 1 
550 1 154.837 27.0863 -5.12781 0.016694 1 
551 1 155.965 29.6876 -5.35211 0.0318427 1 
552 1 157.591 27.4095 -5.90654 0.0310078 1 
553 1 156.78 27.9815 -3.17806 4.85122 5 
554 1 107.581 25.683 -3.83597 0.218116 1 
555 1 159.601 28.2578 -4.05296 0.166607 1 
556 1 110.302 25.9881 -4.57665 0.0645344 1 
557 1 160.611 26.552 -1.83524 5.89712 5 
558 1 111.053 24.2147 -2.43168 7.00365 5 
559 1 112.262 26.9479 -2.63084 0.257605 1 
560 1 113.821 24.5691 -3.19101 0.137902 1 
561 1 112.892 25.1468 -0.668517 7.35779 5 
562 1 114.549 22.8441 -0.962453 4.66636 5 
563 1 115.696 25.4659 -1.10899 2.08079 5 
564 1 117.222 23.2087 -1.93561 7.93579 5 
565 1 119.266 22.8275 -0.118837 7.22433 5 
566 1 121.489 21.3259 0.157754 9.51041 5 
567 1 152.702 34.2966 -4.39314 0.0919752 1 
568 1 154.337 31.9512 -4.89567 0.0914731 1 
569 1 153.418 32.58 -2.3729 6.27611 5 
570 1 155.107 30.2935 -2.56248 3.8784 5 
571 1 156.28 32.8167 -2.99518 0.329803 5 
572 1 157.902 30.5751 -3.47251 0.280238 1 
573 1 157.124 30.8851 -0.682224 10.2573 5 
574 1 158.943 28.9204 -1.52918 5.89712 5 
575 1 159.888 31.5704 -1.51664 5.97027 5 
576 1 161.617 29.2354 -2.1271 0.312216 1 
577 1 162.587 27.5721 0.321758 6.05461 5 
578 1 163.448 30.3034 -0.161159 6.84502 5 
579 1 165.109 27.9785 -0.620498 5.66014 5 
580 1 203.991 37.4812 -1.99434 0.21192 1 
581 1 154.608 35.1188 -2.47398 0.230567 1 
582 1 155.301 33.0309 -0.47322 11.5698 5 
583 1 156.402 36.0168 -0.579887 7.56105 5 
584 1 158.104 33.6281 -1.00766 7.38076 2 
585 1 205.856 38.4434 0.0054182 8.26831 5 
659 1 21.7762 3.75987 -14.0235 6.72116e-05 1 
660 1 23.3882 1.45826 -14.5606 4.21669e-05 1 
661 1 24.5178 4.07832 -14.7981 4.25588e-05 1 
663 1 25.3233 2.35944 -12.65 8.99003e-05 1 
664 1 28.0644 2.67835 -13.4244 5.33937e-05 1 
665 1 29.6735 0.375597 -13.9662 2.49623e-05 1 
666 1 28.8706 0.961759 -11.2795 0.000139739 1 
667 1 31.6106 1.27872 -12.0539 0.000106149 1 
686 1 65.9186 9.77766 -14.31 5.49379e-05 1 
687 1 67.5285 7.47013 -14.8534 5.929e-05 1 
690 1 69.459 8.37096 -12.9489 0.000152863 1 
691 1 71.0709 6.06364 -13.4879 0.000115773 1 
692 1 72.2 8.68742 -13.7258 0.000103647 1 
693 1 73.8131 6.38142 -14.2626 7.67908e-05 1 
694 1 73.0042 6.96221 -11.5859 0.000316616 1 
695 1 23.7109 4.6592 -12.1164 0.00017283 1 
696 1 75.7488 7.28064 -12.3556 0.000156515 1 
697 1 26.4539 4.97903 -12.8877 9.65656e-05 1 
698 1 25.6485 5.55808 -10.2074 0.000397327 1 
699 1 27.2607 3.26184 -10.7378 0.000253127 1 
700 1 28.3918 5.88078 -10.9748 0.000220108 1 
701 1 30.0023 3.58165 -11.5113 0.000180505 1 
702 1 29.2031 4.16614 -8.82593 0.00142816 1 
703 1 30.8135 1.86549 -9.36924 0.000822104 1 
704 1 31.9416 4.48766 -9.59226 0.000489294 1 
705 1 33.5492 2.18378 -10.1372 0.000293093 1 
706 1 32.7604 2.77362 -7.44971 0.00218723 1 
707 1 34.36 0.466487 -7.99535 0.00176169 1 
708 1 35.4865 3.09094 -8.21086 0.00137474 1 
709 1 37.0845 0.780798 -8.75934 0.00106281 1 
710 1 36.2907 1.37892 -6.05261 0.00840082 1 
711 1 39.0065 1.67998 -6.82572 0.00624932 1 
712 1 42.5219 0.254256 -5.4604 0.016602 1 
723 1 110.064 15.7924 -14.5959 2.68841e-05 1 
727 1 62.7006 14.39 -13.2204 8.32701e-05 1 
728 1 64.3097 12.0848 -13.7645 6.42085e-05 1 
729 1 65.4364 14.7068 -13.9953 5.1134e-05 1 
730 1 67.0456 12.4013 -14.5422 4.59494e-05 1 
731 1 66.24 12.9888 -11.8522 0.00015692 1 
732 1 67.8489 10.6803 -12.4035 0.000144282 1 
733 1 68.9768 13.3045 -12.6343 0.000172 1 
734 1 70.5879 10.996 -13.1835 0.000128835 1 
735 1 69.781 11.5827 -10.5022 0.000399583 1 
736 1 71.3912 9.27121 -11.0493 0.000343223 1 
737 1 72.5226 11.8968 -11.2818 0.000249579 1 
738 1 74.1351 9.58656 -11.8223 0.00019432 1 
739 1 73.3269 10.1686 -9.15236 0.000752925 1 
740 1 74.9407 7.85838 -9.68349 0.000723764 1 
741 1 76.0721 10.4833 -9.91713 0.000363051 1 
742 1 77.6857 8.17925 -10.4462 0.000267657 1 
743 1 76.8772 8.75141 -7.7745 0.00186635 1 
744 1 27.5871 6.45779 -8.29392 0.000559349 1 
745 1 79.6205 9.07806 -8.53321 0.000942643 1 
746 1 30.3305 6.78493 -9.05594 0.00108071 1 
747 1 80.4311 7.36004 -6.37199 0.00475449 1 
748 1 31.1487 5.07819 -6.89982 0.00621179 1 
749 1 32.2608 7.70092 -7.12381 0.00614302 1 
750 1 33.8777 5.399 -7.66728 0.00152677 1 
751 1 33.0915 6.00986 -4.96821 0.0248698 1 
752 1 34.7009 3.68681 -5.51471 0.0141737 1 
753 1 35.8123 6.31927 -5.75328 0.012323 1 
754 1 37.4138 3.98965 -6.26539 0.0172192 1 
755 1 36.6081 4.62537 -3.58162 0.264765 1 
756 1 38.2138 2.25128 -4.07739 0.115088 1 
757 1 39.331 4.89193 -4.37973 0.0289193 1 
758 1 40.9265 2.56173 -4.90885 0.0100792 1 
759 1 40.1197 3.17891 -2.22166 0.164725 1 
760 1 41.6564 0.819841 -2.73238 0.265716 1 
761 1 42.8682 3.4226 -3.00021 0.062865 1 
762 1 44.4457 1.09682 -3.53398 0.281656 1 
763 1 43.5291 1.62286 -0.867717 7.84991 5 
764 1 46.297 2.05632 -1.74656 4.87831 5 
765 1 50.2866 0.698103 -0.751836 8.41508 5 
768 1 103.292 21.8059 -14.8742 4.08981e-05 1 
772 1 106.838 20.4039 -13.5095 3.38829e-05 1 
773 1 108.451 18.0981 -14.054 2.25008e-05 1 
774 1 109.578 20.7188 -14.2829 1.27985e-05 1 
775 1 111.19 18.4135 -14.8249 1.86263e-05 1 
776 1 110.384 18.9988 -12.1399 7.41416e-05 1 
777 1 111.997 16.6941 -12.6793 9.1898e-05 1 
778 1 113.123 19.3138 -12.9113 5.37587e-05 1 
779 1 114.735 17.0104 -13.4514 5.62757e-05 1 
780 1 113.929 17.594 -10.7615 0.000275325 1 
781 1 64.6317 15.2931 -11.3027 0.000225346 1 
782 1 116.667 17.9115 -11.5371 0.000140488 1 
783 1 67.3678 15.6099 -12.083 0.000149764 1 
784 1 117.47 16.1956 -9.38567 0.000924541 1 
785 1 68.1704 13.8931 -9.94243 0.000971617 1 
786 1 69.3005 16.5135 -10.1756 0.000356855 1 
787 1 70.9104 14.2071 -10.7319 0.000416791 1 
788 1 70.1059 14.7955 -8.04566 0.00204643 1 
789 1 71.7177 12.4837 -8.60657 0.000959007 1 
790 1 72.8517 15.1077 -8.83672 0.00158191 1 
791 1 74.4625 12.7946 -9.38082 0.000530735 1 
792 1 73.6654 13.3778 -6.71627 0.00212757 1 
793 1 75.266 11.0585 -7.25154 0.00171329 1 
794 1 76.4067 13.6892 -7.47226 0.00145884 1 
795 1 78.007 11.378 -8.00692 0.00148797 1 
796 1 77.2002 11.9436 -5.34034 0.00635868 1 
797 1 78.8058 9.6428 -5.85862 0.013968 1 
798 1 79.926 12.2636 -6.07932 0.0173267 1 
799 1 81.5422 9.98767 -6.6183 0.010879 1 
800 1 80.7119 10.5185 -3.89409 0.287604 1 
801 1 82.3467 8.3013 -4.43567 0.228278 1 
802 1 83.445 10.9295 -4.72356 0.0607803 1 
803 1 85.1096 8.61762 -5.21103 0.0400737 1 
804 1 84.2802 9.33808 -2.60073 2.01126 5 
805 1 35.0876 6.94165 -3.01142 0.493629 1 
806 1 87.0776 9.55973 -3.34021 0.657111 5 
807 1 37.7572 7.25522 -3.85321 0.0664415 1 
808 1 36.9781 8.01219 -1.04721 6.73276 5 
809 1 38.4758 5.57856 -1.729 5.97424 5 
810 1 39.7427 8.13484 -1.92214 1.53348 5 
811 1 41.3094 5.74093 -2.54275 0.184949 1 
812 1 40.4979 6.35061 -0.0313088 8.16596 5 
813 1 42.1048 4.06617 -0.25361 5.86769 5 
814 1 43.2914 6.59646 -0.580511 0.694951 1 
815 1 44.7846 4.2618 -1.02016 4.12316 5 
816 1 101.68 24.1081 -14.328 6.26865e-05 1 
817 1 153.716 26.7267 -14.5639 4.01697e-05 1 
819 1 154.521 25.0094 -12.4167 0.000113466 1 
820 1 105.226 22.7081 -12.9624 7.87711e-05 1 
821 1 106.355 25.3268 -13.1951 4.13999e-05 1 
822 1 107.966 23.0237 -13.7391 2.02523e-05 1 
823 1 107.161 23.6103 -11.0522 0.000116238 1 
824 1 108.773 21.3053 -11.5974 5.62081e-05 1 
825 1 109.902 23.9248 -11.8288 5.84571e-05 1 
826 1 111.512 21.619 -12.3711 3.2501e-05 1 
827 1 110.709 22.2041 -9.68639 0.00020601 1 
828 1 112.317 19.8965 -10.2266 0.000296654 1 
829 1 113.446 22.5184 -10.4604 0.000203603 1 
830 1 115.056 20.2126 -10.9988 0.000219253 1 
831 1 114.248 20.7912 -8.3187 0.00153125 1 
832 1 115.862 18.4906 -8.84468 0.00103869 1 
833 1 116.988 21.1123 -9.08851 0.000811504 1 
834 1 118.6 18.8135 -9.62464 0.000335827 1 
835 1 117.794 19.3928 -6.93228 0.00245302 1 
836 1 119.404 17.1002 -7.47877 0.0015872 1 
837 1 120.533 19.7192 -7.70996 0.00172906 1 
838 1 122.145 17.4194 -8.27449 0.0027697 1 
839 1 121.339 18.0121 -5.58058 0.0420448 1 
840 1 72.0618 15.6947 -6.17436 0.0159752 1 
841 1 124.106 18.3189 -6.39001 0.0168206 1 
842 1 74.8084 16.0028 -6.94053 0.00500022 1 
843 1 74.0584 16.5817 -4.28986 0.0611738 1 
844 1 75.6207 14.2638 -4.81047 0.00548878 1 
845 1 76.764 16.8973 -5.01251 0.0102518 1 
846 1 78.3488 14.5848 -5.54456 0.0120286 1 
847 1 77.5841 15.1309 -2.87829 0.15816 1 
848 1 79.1063 12.8265 -3.39291 0.0692555 1 
849 1 80.2744 15.5043 -3.56999 0.119852 1 
850 1 81.7903 13.1956 -4.20129 0.0870094 1 
851 1 80.8726 13.7627 -1.42168 4.13926 5 
852 1 82.4726 11.5084 -2.02296 6.4961 5 
853 1 83.6499 14.0817 -2.35523 6.94945 2 
854 1 85.3212 11.89 -2.79411 5.84394 5 
855 1 84.1995 10.8102 -0.0507919 9.33216 5 
856 1 86.7302 10.677 -0.865808 5.52057 5 
857 1 85.9917 13.3324 -0.28391 9.54546 5 
858 1 89.2918 10.4933 -1.56174 7.29631 5 
859 1 41.8609 8.99784 0.0219471 7.14286 5 
860 1 152.908 27.308 -11.8775 0.000154913 1 
861 1 154.037 29.9266 -12.1204 0.000180051 1 
862 1 155.651 27.6273 -12.6544 8.76313e-05 1 
863 1 154.844 28.2079 -9.96964 0.000427115 1 