ITEM: TIMESTEP
0
ITEM: NUMBER OF ATOMS
3744
ITEM: BOX BOUNDS xy xz yz pp pp ss
-37.595304426 39.266206845 -37.595304426
0 53.39703255 0
-125.176246522962 133.4842881134097 0
ITEM: ATOMS id type x y z c_csym c_cna 
10701 1 -0.0600636 4.07033 -13.4711 0.000194882 1 
10703 1 -0.68785 1.48078 -14.5171 0.000146155 1 
10721 1 -6.33051 53.1111 -13.6175 0.000161598 1 
11352 1 -1.09824 3.92534 -8.61844 0.00992161 1 
11353 1 -0.919822 1.59307 -6.85383 0.0909827 1 
11356 1 -1.51704 8.57089 -11.9927 0.000520579 1 
11357 1 -1.30789 6.25114 -10.31 0.00124366 1 
11358 1 -2.14662 5.97888 -13.0365 0.000244426 1 
11359 1 -1.93703 3.66277 -11.3531 0.00110399 1 
11366 1 -5.49228 53.3904 -10.8959 0.00108354 1 
11369 1 -1.7278 10.8861 -13.6676 0.000110451 1 
11371 1 -2.35608 8.29352 -14.7146 9.34335e-05 1 
11372 1 -4.44665 10.2048 -14.2743 0.000140351 1 
11373 1 -4.23833 7.88998 -12.6045 0.0004871 1 
11381 1 29.9999 1.90032 -10.4702 0.00151417 1 
11382 1 29.1689 1.62189 -13.1796 0.000325202 1 
11383 1 27.2812 1.21952 -11.0596 0.000504632 1 
11401 1 28.9622 3.93419 -14.8512 0.000138758 1 
11402 1 26.8735 5.84335 -14.3998 8.16818e-05 1 
11403 1 27.0768 3.53105 -12.729 0.000214552 1 
11405 1 26.4512 0.938606 -13.773 0.000174904 1 
11406 1 24.3626 2.84628 -13.3189 0.000169526 1 
11407 1 24.5651 0.535024 -11.6451 0.000484658 1 
11408 1 23.7372 0.254569 -14.3657 0.000104092 1 
11409 1 -15.7402 53.247 -12.234 0.000344272 1 
11435 1 24.1594 5.15851 -14.9948 4.54917e-05 1 
11439 1 21.6513 2.16157 -13.9128 0.000146883 1 
11441 1 18.9404 1.47852 -14.5118 0.000138691 1 
12004 1 -0.0351703 1.8525 -4.14051 0.108332 1 
12006 1 -0.469482 6.52401 -7.57991 0.00573847 1 
12007 1 -0.261201 4.19565 -5.89154 0.0234884 1 
12008 1 -2.36364 6.09696 -5.49312 0.0680481 1 
12009 1 -2.10728 3.70286 -3.8106 0.0947837 1 
12015 1 31.8683 0.150641 -3.42145 6.53792 5 
12016 1 -0.262639 13.7547 -9.8973 0.000562947 1 
12017 1 -0.0455038 11.4412 -8.21629 0.00322249 1 
12018 1 -0.887985 11.1646 -10.9451 0.000462536 1 
12019 1 -0.673772 8.84766 -9.26988 0.0038209 1 
12020 1 -2.76851 10.7644 -8.8483 0.00276469 1 
12021 1 -2.55969 8.43474 -7.20846 0.02761 1 
12022 1 -3.39979 8.16332 -9.89641 0.00345513 1 
12023 1 -3.19008 5.83079 -8.21423 0.00505474 1 
12024 1 -5.29899 7.74732 -7.8184 0.0170969 1 
12030 1 30.8323 2.17586 -7.77142 0.00981316 1 
12031 1 -6.54876 53.278 -6.10766 0.0380069 1 
12032 1 28.9538 1.79974 -5.6553 0.0639598 1 
12033 1 -0.685653 18.3844 -13.2459 0.000134681 1 
12034 1 -0.475152 16.0704 -11.5738 0.000293983 1 
12035 1 -1.31188 15.791 -14.2943 5.50913e-05 1 
12036 1 -1.10089 13.4784 -12.6198 0.000111705 1 
12037 1 -3.1921 15.3917 -12.1757 0.000156866 1 
12038 1 -2.98171 13.0792 -10.5071 0.000499418 1 
12039 1 -3.8189 12.7982 -13.2252 0.000141943 1 
12040 1 -3.6089 10.4845 -11.5584 0.000599819 1 
12041 1 -5.70074 12.3983 -11.1077 0.000449464 1 
12042 1 -5.49379 10.0828 -9.45321 0.00257397 1 
12043 1 -6.33056 9.80303 -12.1598 0.000496095 1 
12050 1 28.7343 4.09058 -7.30232 0.0151416 1 
12051 1 27.9054 3.81094 -10.0148 0.000741505 1 
12052 1 28.1091 1.50126 -8.35054 0.00245376 1 
12053 1 26.0238 3.41038 -7.87823 0.00200892 1 
12054 1 26.2228 1.10501 -6.21748 0.020333 1 
12055 1 25.3946 0.818718 -8.93177 0.00128105 1 
12056 1 23.5091 0.403493 -6.79666 0.0080394 1 
12058 1 -0.89558 20.6956 -14.9183 5.03387e-05 1 
12062 1 -3.40055 17.7032 -13.8471 5.41364e-05 1 
12064 1 -4.0282 15.1095 -14.8967 4.25207e-05 1 
12065 1 -6.11585 17.0192 -14.4477 4.14845e-05 1 
12066 1 -5.90835 14.7092 -12.7744 0.000132359 1 
12068 1 -6.53678 12.1158 -13.8257 0.000125478 1 
12069 1 -8.62392 14.0241 -13.3717 0.000128435 1 
12076 1 27.7044 6.12363 -11.6807 0.000297998 1 
12077 1 25.6232 8.03182 -11.2207 0.000181029 1 
12078 1 25.8242 5.71971 -9.54629 0.000657289 1 
12079 1 24.992 5.43907 -12.2716 0.000127021 1 
12080 1 25.1929 3.12741 -10.5991 0.000319562 1 
12081 1 23.114 5.03138 -10.1398 0.000241452 1 
12082 1 23.312 2.7182 -8.46223 0.00117903 1 
12083 1 22.4798 2.43881 -11.1838 0.000965002 1 
12084 1 22.6777 0.12668 -9.50532 0.00264567 1 
12085 1 20.5964 2.02278 -9.03412 0.00880402 1 
12086 1 -16.8027 53.1086 -7.33453 0.0167969 1 
12110 1 24.7887 7.7512 -13.9463 5.11481e-05 1 
12111 1 22.7052 9.65792 -13.4965 6.44721e-05 1 
12112 1 22.9105 7.34522 -11.8195 0.000113146 1 
12113 1 22.0751 7.06586 -14.5453 4.30624e-05 1 
12114 1 22.28 4.75262 -12.8662 0.000144737 1 
12115 1 20.1981 6.65946 -12.4195 0.00017361 1 
12116 1 20.4039 4.34265 -10.7355 0.000972337 1 
12117 1 19.5686 4.06855 -13.4658 0.000163508 1 
12118 1 19.7736 1.7547 -11.7791 0.000883958 1 
12119 1 17.6934 3.66167 -11.3422 0.000942552 1 
12120 1 17.9014 1.3465 -9.64024 0.00712356 1 
12121 1 17.0646 1.07414 -12.3831 0.000638934 1 
12122 1 15.1911 0.670735 -10.2587 0.00166575 1 
12153 1 19.9904 8.97344 -14.0997 4.63906e-05 1 
12156 1 17.275 8.29118 -14.7042 3.49964e-05 1 
12157 1 17.4841 5.9775 -13.0253 0.000150436 1 
12159 1 16.8559 3.38672 -14.0707 0.00015172 1 
12160 1 14.7679 5.2972 -13.6329 9.07197e-05 1 
12161 1 14.9782 2.98282 -11.9543 0.000579457 1 
12162 1 14.1407 2.70561 -14.6775 9.35938e-05 1 
12163 1 14.3513 0.393918 -12.9932 0.000280016 1 
12164 1 12.26 2.30352 -12.5629 0.000400378 1 
12165 1 -25.1213 53.3902 -10.877 0.000980166 1 
12166 1 -25.9605 53.1099 -13.6024 0.000118686 1 
12210 1 12.0507 4.61642 -14.238 8.54633e-05 1 
12213 1 9.3338 3.93433 -14.8398 6.80993e-05 1 
12214 1 9.54169 1.62256 -13.1658 0.000210728 1 
12216 1 6.82489 0.939447 -13.7638 0.000123774 1 
12274 1 4.11096 0.25594 -14.3615 7.48078e-05 1 
12657 1 -1.12882 11.3273 -3.4084 4.58249 5 
12658 1 -0.956356 8.93543 -1.92703 8.05933 5 
12659 1 -1.71468 8.70929 -4.562 0.267337 1 
12660 1 -1.45051 6.28854 -2.8254 0.295064 1 
12661 1 -3.58855 8.02908 -2.68313 6.06011 5 
12662 1 -3.30637 5.81072 -0.860645 4.57954 5 
12668 1 29.3749 2.76731 -0.135929 9.77003 5 
12669 1 -8.84905 53.343 -0.216575 8.47976 5 
12670 1 -1.52384 15.9487 -6.75145 0.00861552 1 
12671 1 -1.31337 13.6405 -5.05788 0.0395445 1 
12672 1 -2.14317 13.3606 -7.79023 0.00270251 1 
12673 1 -1.92476 11.053 -6.14235 0.0244972 1 
12674 1 -4.01614 12.9682 -5.68329 0.026034 1 
12675 1 -3.78055 10.6178 -4.05007 2.14964 5 
12676 1 -4.64961 10.3652 -6.75494 0.0230245 1 
12677 1 -4.49534 8.00321 -5.1904 0.226286 1 
12678 1 -6.58222 9.92279 -4.7232 0.18675 1 
12684 1 29.5277 4.32364 -4.52635 0.1358 1 
12685 1 29.7789 1.99738 -2.80506 7.5891 5 
12686 1 27.7053 3.86465 -2.20366 7.73927 5 
12687 1 27.0971 1.42198 -3.55413 6.62147 5 
12688 1 25.1868 1.05082 -1.5629 11.8627 5 
12689 1 -0.0606081 20.9789 -12.1926 0.000248189 1 
12690 1 -1.93479 20.5848 -10.0651 0.0007805 1 
12691 1 -1.72879 18.2712 -8.40901 0.00213775 1 
12692 1 -2.56421 17.9873 -11.1257 0.000275758 1 
12693 1 -2.35663 15.6731 -9.4592 0.000739718 1 
12694 1 -4.4428 17.5918 -9.0038 0.000834333 1 
12695 1 -4.23834 15.2793 -7.33845 0.00300298 1 
12696 1 -5.07314 14.993 -10.0535 0.000556413 1 
12697 1 -4.86363 12.6812 -8.3931 0.00148747 1 
12698 1 -6.95058 14.5938 -7.91776 0.00278318 1 
12699 1 -6.74092 12.2861 -6.26989 0.0265221 1 
12700 1 -7.58202 11.9978 -8.98462 0.00225678 1 
12707 1 27.4345 6.23269 -3.94472 0.468878 1 
12708 1 26.6576 6.0039 -6.81326 0.0366334 1 
12709 1 26.8735 3.71497 -5.16947 0.167392 1 
12710 1 24.793 5.60168 -4.69458 0.25566 1 
12711 1 25.0242 3.32413 -3.08948 6.1406 5 
12712 1 24.1443 2.99137 -5.73923 0.0186129 1 
12713 1 24.3137 0.643075 -4.08766 0.259347 1 
12714 1 22.267 2.52838 -3.56895 0.265865 1 
12715 1 22.4777 0.250234 -1.67541 4.00641 5 
12716 1 -15.9477 53.3742 -4.61119 0.0679301 1 
12717 1 -17.7269 52.9261 -2.45091 7.00476 5 
12719 1 -0.270464 23.2883 -13.864 0.000112799 1 
12720 1 -2.35479 25.198 -13.4121 0.000290447 1 
12721 1 -2.1452 22.8919 -11.7349 0.00034289 1 
12722 1 -2.98175 22.6062 -14.4679 9.43342e-05 1 
12723 1 -2.77217 20.2981 -12.7941 0.000138167 1 
12724 1 -4.85617 22.2087 -12.3433 0.000397804 1 
12725 1 -4.64689 19.9022 -10.6717 0.000502654 1 
12726 1 -5.48626 19.6137 -13.3978 9.26461e-05 1 
12727 1 -5.27914 17.3039 -11.7239 0.000162827 1 
12728 1 -7.36255 19.2123 -11.2753 0.0002237 1 
12729 1 -7.15583 16.9024 -9.59435 0.000770715 1 
12730 1 -7.99376 16.6169 -12.3217 0.000165678 1 
12731 1 -7.78723 14.3078 -10.6461 0.000511886 1 
12732 1 -9.86866 16.2115 -10.1911 0.000613585 1 
12733 1 -9.6598 13.9037 -8.50675 0.00264478 1 
12739 1 26.4576 8.31113 -8.491 0.00427915 1 
12740 1 24.385 10.2196 -8.03475 0.00317133 1 
12741 1 24.5827 7.90819 -6.37756 0.0302199 1 
12742 1 23.7459 7.6242 -9.0941 0.000837659 1 
12743 1 23.9508 5.31058 -7.4106 0.00177022 1 
12744 1 21.879 7.20997 -6.95464 0.00434294 1 
12745 1 22.0842 4.87958 -5.28012 0.0174932 1 
12746 1 21.2412 4.6169 -8.00711 0.00174948 1 
12747 1 21.4363 2.29338 -6.31505 0.00979991 1 
12748 1 19.3754 4.19001 -5.88064 0.0164081 1 
12749 1 19.5924 1.85304 -4.13476 0.0983862 1 
12750 1 18.7109 1.59061 -6.84728 0.083633 1 
12751 1 16.809 1.14179 -4.61995 0.8056 5 
12761 1 -5.06722 24.5145 -14.0221 0.000187913 1 
12764 1 -7.78345 23.8287 -14.6319 7.6729e-05 1 
12765 1 -7.57205 21.521 -12.9531 0.000150803 1 
12767 1 -8.20183 18.9266 -14.0007 5.5725e-05 1 
12768 1 -10.2895 20.8324 -13.5592 6.47877e-05 1 
12769 1 -10.0785 18.5219 -11.8776 0.000158599 1 
12770 1 -10.9179 18.2394 -14.6032 4.71993e-05 1 
12771 1 -10.7086 15.9292 -12.9211 0.000178765 1 
12778 1 23.3357 12.2483 -12.4456 0.000165 1 
12779 1 23.5437 9.93805 -10.7677 0.000246688 1 
12780 1 21.4601 11.8418 -10.3213 0.000395793 1 
12781 1 21.6701 9.52866 -8.64559 0.000993812 1 
12782 1 20.829 9.25158 -11.373 0.000161266 1 
12783 1 21.0365 6.93574 -9.69057 0.000572356 1 
12784 1 18.956 8.84453 -9.25438 0.00111941 1 
12785 1 19.1682 6.52258 -7.5715 0.00322172 1 
12786 1 18.3235 6.2502 -10.298 0.000756528 1 
12787 1 18.5335 3.92451 -8.60741 0.00912344 1 
12788 1 16.4469 5.83577 -8.1918 0.00205491 1 
12789 1 16.6657 3.49989 -6.50351 0.0586702 1 
12790 1 15.8179 3.2556 -9.23274 0.00458219 1 
12791 1 16.0318 0.943235 -7.51141 0.0401239 1 
12792 1 13.9318 2.85391 -7.14621 0.0284773 1 
12793 1 14.1581 0.549988 -5.38259 0.785428 5 
12794 1 13.3211 0.273692 -8.14214 0.011177 1 
12795 1 -26.1717 53.282 -6.08743 0.0354411 1 
12817 1 -13.0068 20.1453 -14.1629 5.84469e-05 1 
12824 1 21.0363 16.4651 -13.6878 7.78813e-05 1 
12825 1 21.2477 14.1525 -12.0046 0.000188234 1 
12826 1 20.4093 13.8755 -14.7314 2.93388e-05 1 
12827 1 20.6198 11.5643 -13.0513 7.84607e-05 1 
12828 1 18.5307 13.4721 -12.6095 7.66379e-05 1 
12829 1 18.7435 11.1601 -10.9314 0.000216985 1 
12830 1 17.9034 10.8822 -13.6568 4.39461e-05 1 
12831 1 18.1135 8.56845 -11.9792 0.000177893 1 
12832 1 16.0252 10.4805 -11.5392 0.000254928 1 
12833 1 16.2352 8.16321 -9.86762 0.000637809 1 
12834 1 15.3955 7.88863 -12.5864 0.000119844 1 
12835 1 15.6052 5.57334 -10.9112 0.000486356 1 
12836 1 13.5114 7.4861 -10.4716 0.000669312 1 
12837 1 13.719 5.17048 -8.8042 0.00229079 1 
12838 1 12.8861 4.89542 -11.5196 0.000294669 1 
12839 1 13.0969 2.58004 -9.8486 0.0031463 1 
12840 1 10.9991 4.49436 -9.40859 0.00146177 1 
12841 1 11.2106 2.18432 -7.74986 0.00772884 1 
12842 1 10.375 1.90343 -10.4523 0.00111379 1 
12843 1 8.48621 1.50569 -8.33693 0.00216705 1 
12877 1 18.3196 15.784 -14.2892 3.3122e-05 1 
12880 1 15.6036 15.1032 -14.8902 1.24654e-05 1 
12881 1 15.8139 12.7924 -13.2129 4.5242e-05 1 
12883 1 15.1864 10.2014 -14.2612 4.07042e-05 1 
12884 1 13.0972 12.1117 -13.8143 4.67436e-05 1 
12885 1 13.3053 9.80049 -12.1423 0.000236005 1 
12886 1 12.4697 9.5202 -14.8639 3.55197e-05 1 
12887 1 12.6776 7.20858 -13.1907 9.19655e-05 1 
12888 1 10.5882 9.11915 -12.7419 0.000122456 1 
12889 1 10.793 6.80703 -11.0726 0.000450304 1 
12890 1 9.96075 6.5271 -13.7922 8.01913e-05 1 
12891 1 10.1672 4.21539 -12.1218 0.000264719 1 
12892 1 8.07772 6.12546 -11.6693 0.000157949 1 
12893 1 8.2812 3.81485 -10.0016 0.000489376 1 
12894 1 7.45058 3.53258 -12.7187 0.000135916 1 
12895 1 7.65652 1.22157 -11.0477 0.000402331 1 
12896 1 5.56699 3.13003 -10.5925 0.000258496 1 
12897 1 5.77028 0.82183 -8.92426 0.00123603 1 
12898 1 4.94011 0.53695 -11.6388 0.000443967 1 
12899 1 3.05248 0.129828 -9.50328 0.00263152 1 
12945 1 10.3816 11.4295 -14.415 3.59022e-05 1 
12949 1 7.87346 8.43633 -13.3413 5.79567e-05 1 
12951 1 7.24543 5.84384 -14.3916 4.29689e-05 1 
12952 1 5.15989 7.75201 -13.9425 4.85867e-05 1 
12953 1 5.36449 5.44068 -12.2663 0.000100924 1 
12954 1 4.53142 5.15945 -14.9914 3.41353e-05 1 
12955 1 4.736 2.84777 -13.3141 0.000138307 1 
12956 1 2.65209 4.75431 -12.866 0.000145796 1 
12957 1 2.853 2.44121 -11.1826 0.000954453 1 
12958 1 2.02422 2.16343 -13.9131 0.000139137 1 
12959 1 -35.3658 53.2496 -12.2334 0.000315919 1 
12960 1 0.145911 1.75717 -11.7837 0.00096479 1 
13019 1 2.44626 7.06726 -14.5462 5.09528e-05 1 
13297 1 -0.428563 13.8648 -2.26282 4.26489 5 
13298 1 -2.01891 12.0817 -0.936186 12.2686 5 
13299 1 -3.34899 9.73434 -0.74989 9.67503 5 
13300 1 -5.35611 7.75191 -0.534547 7.16315 2 
13301 1 -0.265377 21.13 -4.5806 0.388554 1 
13302 1 -0.0351864 18.7697 -3.02655 5.63978 5 
13303 1 -0.886091 18.5397 -5.70584 0.0151619 1 
13304 1 -0.667019 16.1801 -4.06864 0.10255 1 
13305 1 -2.74599 18.1766 -3.62803 0.12529 1 
13306 1 -2.45245 15.961 -1.96283 5.40909 5 
13307 1 -3.41239 15.5813 -4.62756 0.069314 1 
13308 1 -3.26611 13.3223 -2.93967 6.1509 5 
13309 1 -5.33045 15.2428 -2.40104 6.46529 5 
13310 1 -5.84309 12.5304 -3.57155 1.07418 5 
13311 1 -5.68575 9.9732 -2.20954 6.74115 5 
13312 1 -7.68514 11.9918 -1.63886 6.18261 5 
13315 1 -0.687853 25.7646 -7.91169 0.0103363 1 
13316 1 -0.488564 23.4578 -6.24026 0.025182 1 
13317 1 -1.31064 23.1775 -8.99458 0.00161332 1 
13318 1 -1.09508 20.8709 -7.32838 0.00793357 1 
13319 1 -3.16936 22.7971 -6.84845 0.0216346 1 
13320 1 -2.9537 20.4935 -5.22246 0.0347841 1 
13321 1 -3.8058 20.1975 -7.94482 0.00298488 1 
13322 1 -3.61263 17.8834 -6.29284 0.0116563 1 
13323 1 -5.68308 19.8077 -5.8352 0.0162216 1 
13324 1 -5.48625 17.5179 -4.11911 0.126628 1 
13325 1 -6.31561 17.1956 -6.86694 0.00502854 1 
13326 1 -6.10013 14.8922 -5.19235 0.0296059 1 
13327 1 -8.17532 16.794 -4.7282 0.0355091 1 
13328 1 -7.92394 14.451 -3.02887 1.14623 5 
13329 1 -8.81556 14.1914 -5.75744 0.0293112 1 
13336 1 26.2944 8.31208 -1.11097 10.1459 5 
13337 1 25.3497 8.11644 -3.60661 0.544663 1 
13338 1 25.5658 5.65752 -1.62221 8.25601 5 
13339 1 23.4433 7.56639 -1.05752 9.21262 5 
13340 1 22.9312 5.23448 -2.60007 6.15023 5 
13341 1 23.1674 3.0219 -1.01562 9.70181 5 
13342 1 21.0642 4.93236 -0.447819 10.115 5 
13343 1 20.4466 2.13283 -1.20291 5.18121 5 
13344 1 -1.10177 30.3788 -11.3095 0.000796148 1 
13345 1 -0.892965 28.0691 -9.60935 0.00645335 1 
13346 1 -1.72839 27.7879 -12.3573 0.000640812 1 
13347 1 -1.5191 25.4825 -10.6698 0.00120614 1 
13348 1 -3.59856 27.3907 -10.23 0.00201497 1 
13349 1 -3.38696 25.0892 -8.53707 0.00259518 1 
13350 1 -4.22742 24.8011 -11.2857 0.000724966 1 
13351 1 -4.01528 22.4999 -9.60502 0.00216448 1 
13352 1 -6.10203 24.4063 -9.16847 0.00177783 1 
13353 1 -5.88724 22.1107 -7.49125 0.00316505 1 
13354 1 -6.72999 21.8111 -10.2253 0.000772084 1 
13355 1 -6.52042 19.5045 -8.55305 0.00119094 1 
13356 1 -8.603 21.4124 -8.11477 0.00281304 1 
13357 1 -8.3934 19.1047 -6.44243 0.00863358 1 
13358 1 -9.23808 18.8073 -9.15311 0.00104566 1 
13359 1 -9.02736 16.4964 -7.45614 0.00355203 1 
13360 1 -11.1064 18.3998 -7.02106 0.00753135 1 
13361 1 -10.8824 16.0955 -5.29819 0.0262309 1 
13367 1 25.2192 10.4764 -5.27496 0.0345893 1 
13368 1 23.1487 12.3651 -4.81716 0.0461894 1 
13369 1 23.3124 9.99945 -3.14593 0.488064 1 
13370 1 22.5135 9.81079 -5.92266 0.0269057 1 
13371 1 22.7155 7.49202 -4.22705 0.287189 1 
13372 1 20.6686 9.40945 -3.79013 0.253789 1 
13373 1 20.879 7.11653 -2.0994 6.35172 5 
13374 1 20.0235 6.78972 -4.83672 0.0307782 1 
13375 1 20.2466 4.43014 -3.15253 0.192645 1 
13376 1 18.179 6.31468 -2.81118 0.129311 1 
13377 1 17.5259 3.72409 -3.78571 0.0755405 1 
13378 1 17.7651 1.34355 -1.96415 7.0561 5 
13379 1 15.6754 3.15715 -1.81742 1.84043 5 
13380 1 14.7041 0.428277 -1.93813 12.3658 5 
13381 1 11.7106 0.779784 -0.811131 9.34466 5 
13382 1 -1.52239 34.9932 -14.6813 0.000125876 1 
13383 1 -1.31213 32.6871 -12.9954 0.0001887 1 
13385 1 -1.93831 30.0956 -14.0457 0.000152137 1 
13386 1 -4.02495 32.0047 -13.6082 0.000105255 1 
13387 1 -3.81277 29.6971 -11.926 0.000526779 1 
13388 1 -4.65159 29.4126 -14.6565 9.06905e-05 1 
13389 1 -4.43946 27.1055 -12.9709 0.000376838 1 
13390 1 -6.52967 29.0128 -12.5413 0.000307077 1 
13391 1 -6.31411 26.707 -10.8546 0.0012738 1 
13392 1 -7.15585 26.4208 -13.5849 0.000170865 1 
13393 1 -6.94305 24.1151 -11.9036 0.000373617 1 
13394 1 -9.03677 26.0192 -11.4733 0.000406138 1 
13395 1 -8.82264 23.7136 -9.79257 0.000676341 1 
13396 1 -9.66268 23.426 -12.515 0.000110192 1 
13397 1 -9.44886 21.1179 -10.836 0.000322299 1 
13398 1 -11.5444 23.0221 -10.3996 0.000335888 1 
13399 1 -11.326 20.7126 -8.72455 0.00239719 1 
13400 1 -12.1674 20.427 -11.4416 0.000284448 1 
13401 1 -11.9516 18.1148 -9.75382 0.000780577 1 
13402 1 -14.044 20.0207 -9.32912 0.00214769 1 
13408 1 22.0863 14.4247 -9.27428 0.00179203 1 
13409 1 22.302 12.1179 -7.58287 0.00412821 1 
13410 1 20.2017 14.0135 -7.1417 0.0110269 1 
13411 1 20.424 11.7136 -5.45932 0.0172888 1 
13412 1 19.5869 11.4365 -8.20229 0.00153561 1 
13413 1 19.8105 9.12076 -6.52595 0.0121854 1 
13414 1 17.7259 11.0443 -6.09638 0.0269622 1 
13415 1 17.9312 8.70837 -4.49259 0.102255 1 
13416 1 17.0776 8.43446 -7.16051 0.00537593 1 
13417 1 17.292 6.09223 -5.4874 0.0130131 1 
13418 1 15.191 8.02544 -5.06032 0.0548824 1 
13419 1 15.4265 5.6272 -3.42071 0.0214646 1 
13420 1 14.5643 5.41911 -6.09808 0.00696169 1 
13421 1 14.7802 3.074 -4.44355 1.01121 5 
13422 1 12.6603 5.00009 -4.02401 0.0579518 1 
13423 1 12.9484 2.68902 -2.39492 6.72018 5 
13424 1 12.0289 2.45657 -5.04597 0.0822408 1 
13425 1 12.2439 0.160243 -3.40834 6.52518 5 
13426 1 10.1517 2.00844 -2.8003 7.60624 5 
13427 1 -28.483 53.3523 -0.210133 8.50411 5 
13438 1 -6.74128 31.3205 -14.2196 6.84086e-05 1 
13441 1 -9.45933 30.6349 -14.8266 5.09946e-05 1 
13442 1 -9.24915 28.3268 -13.1502 0.000164045 1 
13444 1 -9.87506 25.7343 -14.1938 8.15374e-05 1 
13445 1 -11.9686 27.6396 -13.752 0.000110678 1 
13446 1 -11.7583 25.3306 -12.0765 0.000229101 1 
13447 1 -12.5933 25.0479 -14.7966 4.84504e-05 1 
13448 1 -12.3815 22.738 -13.1195 7.61292e-05 1 
13449 1 -14.4765 24.6435 -12.6749 0.000227845 1 
13450 1 -14.2638 22.3329 -11.0021 0.000489395 1 
13451 1 -15.099 22.0522 -13.7211 9.29568e-05 1 
13458 1 19.993 16.3316 -8.85104 0.002861 1 
13459 1 19.1563 16.0609 -11.5672 0.000275257 1 
13460 1 19.3695 13.7472 -9.88199 0.000828363 1 
13461 1 17.276 15.6605 -9.44603 0.00067828 1 
13462 1 17.4923 13.3485 -7.76049 0.0053887 1 
13463 1 16.6522 13.0716 -10.4887 0.000308245 1 
13464 1 16.8691 10.7597 -8.81949 0.00208153 1 
13465 1 14.777 12.6775 -8.36543 0.00332397 1 
13466 1 14.9885 10.3597 -6.73335 0.017928 1 
13467 1 14.1441 10.0798 -9.42918 0.00189316 1 
13468 1 14.3519 7.75468 -7.76306 0.00215909 1 
13469 1 12.2525 9.67375 -7.32796 0.0105179 1 
13470 1 12.4468 7.33286 -5.67956 0.0266383 1 
13471 1 11.6145 7.07861 -8.35583 0.00662132 1 
13472 1 11.8156 4.76053 -6.69461 0.0147974 1 
13473 1 9.70519 6.65846 -6.20159 0.0421547 1 
13474 1 9.90825 4.33692 -4.51852 0.12437 1 
13475 1 9.11276 4.09837 -7.28771 0.0123829 1 
13476 1 9.33157 1.80676 -5.64131 0.0576089 1 
13477 1 7.24548 3.72074 -5.16286 0.153993 1 
13478 1 7.46842 1.42874 -3.54735 6.63988 5 
13479 1 6.59806 1.11029 -6.2105 0.0199364 1 
13480 1 4.68636 0.649567 -4.08565 0.258278 1 
13504 1 -14.6855 26.9533 -14.3507 7.53711e-05 1 
13507 1 -17.4003 26.269 -14.9495 5.58254e-05 1 
13514 1 18.9459 18.375 -13.2449 0.00010413 1 
13515 1 16.858 20.2865 -12.7958 7.96758e-05 1 
13516 1 17.0668 17.975 -11.1216 0.000191012 1 
13517 1 16.2304 17.6945 -13.844 2.17232e-05 1 
13518 1 16.4399 15.3829 -12.1666 7.54068e-05 1 
13519 1 14.3517 17.2948 -11.7189 7.5049e-05 1 
13520 1 14.5606 14.9845 -10.0415 0.000256531 1 
13521 1 13.7244 14.7028 -12.7657 4.32719e-05 1 
13522 1 13.935 12.3933 -11.0907 0.000307765 1 
13523 1 11.8459 14.3033 -10.638 0.000295159 1 
13524 1 12.0556 11.9954 -8.96965 0.00174249 1 
13525 1 11.2169 11.7111 -11.6897 0.000227004 1 
13526 1 11.4196 9.39812 -10.0227 0.00148706 1 
13527 1 9.33544 11.308 -9.56004 0.00106777 1 
13528 1 9.52706 8.98761 -7.89036 0.00699811 1 
13529 1 8.70544 8.71678 -10.6159 0.000376595 1 
13530 1 8.90654 6.40471 -8.94668 0.00277787 1 
13531 1 6.82551 8.31364 -8.4826 0.00324495 1 
13532 1 7.02753 6.00909 -6.8082 0.0294448 1 
13533 1 6.19625 5.72285 -9.53981 0.000418559 1 
13534 1 6.39774 3.41524 -7.87096 0.00172938 1 
13535 1 4.31895 5.3151 -7.40763 0.00155336 1 
13536 1 4.51443 2.99746 -5.73704 0.0188087 1 
13537 1 3.6844 2.72198 -8.46003 0.00110768 1 
13538 1 3.88336 0.407651 -6.79407 0.0079504 1 
13539 1 1.80653 2.29847 -6.31747 0.0109585 1 
13540 1 -35.5735 53.378 -4.61411 0.0681695 1 
13541 1 -36.4292 53.1127 -7.33727 0.0175848 1 
13579 1 16.6478 22.5958 -14.4732 5.45483e-05 1 
13583 1 14.143 19.6048 -13.3974 4.27974e-05 1 
13585 1 13.5152 17.0127 -14.4438 1.49172e-05 1 
13586 1 11.4275 18.9214 -13.9991 2.73918e-05 1 
13587 1 11.6372 16.6118 -12.3173 9.97535e-05 1 
13589 1 11.0092 14.0204 -13.3648 7.27194e-05 1 
13590 1 8.92308 15.9274 -12.9174 0.000129874 1 
13591 1 9.13175 13.6184 -11.2341 0.0003904 1 
13592 1 8.29515 13.3372 -13.9655 7.96405e-05 1 
13593 1 8.50219 11.0278 -12.2883 0.000104211 1 
13594 1 6.41869 12.934 -11.8374 0.000298977 1 
13595 1 6.62411 10.6242 -10.1581 0.000418125 1 
13596 1 5.78908 10.3439 -12.8907 9.80716e-05 1 
13597 1 5.99382 8.03323 -11.2146 0.000160646 1 
13598 1 3.91245 9.93943 -10.766 0.000305807 1 
13599 1 4.11405 7.62656 -9.09043 0.000752438 1 
13600 1 3.28131 7.34684 -11.8186 0.000132776 1 
13601 1 3.48514 5.03391 -10.138 0.000229852 1 
13602 1 1.40538 6.93769 -9.69369 0.000890296 1 
13603 1 1.60935 4.62075 -8.0097 0.00191783 1 
13604 1 0.774902 4.34467 -10.7398 0.00105083 1 
13605 1 0.968067 2.0258 -9.03724 0.00924619 1 
13651 1 8.71247 18.2377 -14.601 3.32768e-05 1 
13655 1 6.20916 15.244 -13.5212 0.000126672 1 
13657 1 5.58125 12.6539 -14.5695 6.95056e-05 1 
13658 1 3.49414 14.5615 -14.1283 6.25438e-05 1 
13659 1 3.70467 12.2503 -12.4462 0.00018655 1 
13661 1 3.07556 9.6595 -13.4971 9.10207e-05 1 
13662 1 0.989355 11.5676 -13.0572 0.000115894 1 
13663 1 1.19924 9.25389 -11.3786 0.000330518 1 
13664 1 0.360723 8.97572 -14.1056 9.02816e-05 1 
13665 1 0.568781 6.66119 -12.4247 0.000255563 1 
13718 1 0.778196 13.8799 -14.7359 3.57231e-05 1 
13899 1 -1.39649 23.0218 -0.991562 8.53146 5 
13900 1 -2.11077 20.7608 -2.4684 6.14373 5 
13901 1 -1.78744 18.5383 -0.894162 9.87152 5 
13902 1 -0.0866533 28.3255 -6.81437 0.0785162 1 
13903 1 -1.982 27.9054 -4.57931 0.85062 5 
13904 1 -1.79574 25.5374 -2.87762 1.65848 5 
13905 1 -2.54928 25.3812 -5.7706 0.0716294 1 
13906 1 -2.35871 23.0543 -4.03476 0.265991 1 
13907 1 -4.40565 24.9875 -3.66946 1.89314 5 
13908 1 -4.20982 22.7456 -1.84849 7.36055 5 
13909 1 -5.03829 22.4259 -4.76178 0.0696212 1 
13910 1 -4.78661 20.1656 -3.16136 0.333489 1 
13911 1 -6.86759 22.0891 -2.66506 3.2125 5 
13912 1 -7.58419 19.4106 -3.74892 0.27344 1 
13913 1 -7.41668 17.1283 -1.89679 6.44775 5 
13914 1 -9.52505 19.0422 -1.34709 7.52253 5 
13915 1 -9.99178 16.3853 -2.5536 1.50745 5 
13916 1 -9.78296 14.0067 -0.970528 6.59471 5 
13919 1 -0.476025 32.9711 -10.2557 0.000774698 1 
13920 1 -0.265408 30.6551 -8.56619 0.00835367 1 
13921 1 -2.34605 32.5755 -8.13999 0.00201802 1 
13922 1 -2.1239 30.2505 -6.45552 0.0601901 1 
13923 1 -2.97232 29.9835 -9.19514 0.00420565 1 
13924 1 -2.75818 27.6768 -7.47636 0.0385646 1 
13925 1 -4.85297 29.5903 -7.11185 0.0288113 1 
13926 1 -4.6242 27.2914 -5.34686 0.827782 5 
13927 1 -5.46451 26.9973 -8.1138 0.0140073 1 
13928 1 -5.25753 24.7058 -6.42479 0.0102257 1 
13929 1 -7.36164 26.6021 -6.06745 0.0372168 1 
13930 1 -7.14846 24.3257 -4.35458 0.147616 1 
13931 1 -7.99219 24.0068 -7.06282 0.00846319 1 
13932 1 -7.76596 21.7277 -5.38069 0.0212481 1 
13933 1 -9.89088 23.6159 -4.92188 0.151584 1 
13934 1 -9.65187 21.3045 -3.30535 0.576782 1 
13935 1 -10.4722 21.014 -6.02529 0.0305226 1 
13936 1 -10.2398 18.7078 -4.30007 0.0974721 1 
13937 1 -12.2943 20.6488 -3.91759 0.581516 1 
13938 1 -12.0494 18.3561 -2.20161 2.66863 5 
13944 1 21.9658 14.5103 -1.72416 6.59182 5 
13945 1 21.2583 11.9037 -2.67727 0.372822 1 
13946 1 21.4652 9.62741 -0.700184 7.27816 5 
13947 1 18.8171 8.88457 -1.8804 2.82498 5 
13948 1 16.3439 5.8702 -0.804715 4.47433 5 
13949 1 -0.269913 40.1702 -12.6022 0.000338094 1 
13950 1 -0.0608696 37.8644 -10.9 0.000897332 1 
13951 1 -0.896413 37.5817 -13.6372 0.000217868 1 
13952 1 -0.686416 35.2768 -11.9436 0.000522537 1 
13953 1 -2.77384 37.1847 -11.5121 0.000484347 1 
13954 1 -2.56004 34.8834 -9.8184 0.00137941 1 
13955 1 -3.39913 34.5958 -12.5575 0.000239993 1 
13956 1 -3.18696 32.2915 -10.8756 0.000394801 1 
13957 1 -5.27907 34.199 -10.4397 0.000541084 1 
13958 1 -5.06719 31.8973 -8.76713 0.00190766 1 
13959 1 -5.90316 31.6069 -11.4935 0.00029119 1 
13960 1 -5.69008 29.2988 -9.8203 0.00297574 1 
13961 1 -7.78579 31.2077 -9.3841 0.00110538 1 
13962 1 -7.57301 28.9029 -7.72563 0.00671345 1 
13963 1 -8.41229 28.6128 -10.4326 0.000889405 1 
13964 1 -8.19915 26.3066 -8.75783 0.00380224 1 
13965 1 -10.3008 28.2103 -8.32223 0.00179753 1 
13966 1 -10.0935 25.9062 -6.64884 0.018631 1 
13967 1 -10.9218 25.6162 -9.36242 0.00100609 1 
13968 1 -10.7033 23.3144 -7.68131 0.00572903 1 
13969 1 -12.819 25.2089 -7.26524 0.0195264 1 
13970 1 -12.591 22.9017 -5.59354 0.0671839 1 
13971 1 -13.4338 22.6141 -8.28804 0.00433631 1 
13972 1 -13.1975 20.311 -6.61443 0.0276284 1 
13973 1 -15.3243 22.214 -6.14705 0.041283 1 
13979 1 20.8363 16.5885 -6.15521 0.0195913 1 
13980 1 21.0487 14.2517 -4.39465 0.0709533 1 
13981 1 18.9631 16.1854 -4.06534 0.0880693 1 
13982 1 19.1686 13.8918 -2.2557 2.41623 5 
13983 1 18.3029 13.6157 -4.99412 0.0777105 1 
13984 1 18.5628 11.3517 -3.32065 0.38758 1 
13985 1 16.4094 13.2026 -2.73165 5.16607 5 
13986 1 16.7775 10.6014 -1.36643 10.9591 5 
13987 1 15.8675 10.6427 -4.07028 0.389692 1 
13988 1 16.1015 8.17719 -2.40461 0.956174 5 
13989 1 14.006 10.0092 -2.1708 5.92003 5 
13990 1 14.2311 7.80249 -0.435705 5.8687 5 
13991 1 13.2962 7.51403 -3.03486 0.159688 1 
13992 1 13.5748 5.17586 -1.35209 0.207285 1 
13993 1 11.4899 7.18392 -0.855392 0.354156 1 
13994 1 10.8571 4.6237 -1.85439 4.28604 5 
13995 1 9.73294 2.77355 -0.136902 9.61425 5 
13997 1 -0.478996 42.4809 -14.2952 0.000176632 1 
14000 1 -3.19561 41.7992 -14.8967 9.42961e-05 1 
14001 1 -2.98554 39.4899 -13.2073 0.000184403 1 
14003 1 -3.61075 36.9004 -14.2455 0.000103302 1 
14004 1 -5.70177 38.8078 -13.8125 8.01169e-05 1 
14005 1 -5.49057 36.5018 -12.1249 0.00017131 1 
14006 1 -6.32653 36.2177 -14.8538 4.08722e-05 1 
14007 1 -6.11508 33.912 -13.171 0.000108785 1 
14008 1 -8.2072 35.8171 -12.7334 7.51124e-05 1 
14009 1 -7.99664 33.5119 -11.054 0.000315644 1 
14010 1 -8.83261 33.2266 -13.7799 6.16237e-05 1 
14011 1 -8.62253 30.92 -12.1043 0.000185266 1 
14012 1 -10.7149 32.8236 -11.6606 0.000121422 1 
14013 1 -10.5072 30.5169 -9.98827 0.000356648 1 
14014 1 -11.342 30.2318 -12.7075 0.000111638 1 
14015 1 -11.1339 27.9235 -11.0345 0.000329578 1 
14016 1 -13.2264 29.8258 -10.5843 0.000252081 1 
14017 1 -13.0216 27.5192 -8.91458 0.00134822 1 
14018 1 -13.8543 27.2343 -11.6284 0.000472604 1 
14019 1 -13.6472 24.9247 -9.95833 0.00200085 1 
14020 1 -15.7438 26.8238 -9.49364 0.00274308 1 
14021 1 -15.5401 24.513 -7.81943 0.00553113 1 
14022 1 -16.3607 24.2382 -10.5464 0.000713691 1 
14029 1 18.7454 18.5269 -5.70552 0.014023 1 
14030 1 17.9024 18.2542 -8.40433 0.00192292 1 
14031 1 18.1078 15.9295 -6.73278 0.0117626 1 
14032 1 16.0203 17.8601 -6.2806 0.0113526 1 
14033 1 16.2223 15.5412 -4.58848 0.0946839 1 
14034 1 15.3976 15.2676 -7.32072 0.00271792 1 
14035 1 15.6307 12.9694 -5.62851 0.0729956 1 
14036 1 13.5304 14.8942 -5.19247 0.0309865 1 
14037 1 13.7908 12.5579 -3.55949 1.43866 5 
14038 1 12.8996 12.2871 -6.25326 0.0218743 1 
14039 1 13.0672 9.93888 -4.68232 0.16294 1 
14040 1 10.981 11.852 -4.16563 0.148595 1 
14041 1 11.1736 9.46102 -2.53472 0.39838 1 
14042 1 10.3517 9.24528 -5.20382 0.0202707 1 
14043 1 10.5536 6.90701 -3.53113 0.0742855 1 
14044 1 8.51774 8.86893 -3.01179 0.3074 1 
14045 1 7.80123 6.238 -3.95819 0.401487 1 
14046 1 8.06903 3.87544 -2.20274 7.75584 5 
14047 1 5.9175 5.67151 -1.61936 8.28495 5 
14048 1 5.38976 3.33551 -3.08773 6.13793 5 
14049 1 5.55496 1.06259 -1.56019 11.8316 5 
14050 1 3.53407 3.03759 -1.01781 9.54529 5 
14051 1 2.85051 0.256158 -1.67842 3.96299 5 
14065 1 -8.41768 38.1241 -14.4162 2.66959e-05 1 
14069 1 -10.9239 35.1312 -13.3388 3.14542e-05 1 
14071 1 -11.5503 32.5401 -14.3841 3.38654e-05 1 
14072 1 -13.6404 34.4447 -13.9413 1.52475e-05 1 
14073 1 -13.4323 32.1348 -12.2614 7.15015e-05 1 
14074 1 -14.2672 31.8537 -14.985 2.40708e-05 1 
14075 1 -14.0602 29.5436 -13.3051 0.000140682 1 
14076 1 -16.148 31.4469 -12.8597 0.00011294 1 
14077 1 -15.9446 29.1346 -11.1742 0.000963824 1 
14078 1 -16.7749 28.8577 -13.9029 0.000122508 1 
14079 1 -16.5683 26.5474 -12.222 0.000318771 1 
14080 1 -18.6543 28.4501 -11.7714 0.000835398 1 
14087 1 17.6958 20.5686 -10.0683 0.000619577 1 
14088 1 15.6122 22.4819 -9.61253 0.00187565 1 
14089 1 15.8238 20.1784 -7.94509 0.00244785 1 
14090 1 14.9821 19.8894 -10.6718 0.000331 1 
14091 1 15.1886 17.579 -8.99683 0.000485025 1 
14092 1 13.1073 19.4943 -8.55181 0.000899562 1 
14093 1 13.3147 17.1895 -6.86246 0.00444057 1 
14094 1 12.4746 16.896 -9.5895 0.000578294 1 
14095 1 12.6826 14.5895 -7.91053 0.00235669 1 
14096 1 10.6013 16.4954 -7.45156 0.00329251 1 
14097 1 10.8145 14.1941 -5.75412 0.0279564 1 
14098 1 9.97211 13.9033 -8.50152 0.0021498 1 
14099 1 10.1731 11.5892 -6.8486 0.00784034 1 
14100 1 8.10591 13.4998 -6.36647 0.00847253 1 
14101 1 8.29741 11.1742 -4.70564 0.0311916 1 
14102 1 7.45364 10.8961 -7.41805 0.00537431 1 
14103 1 7.63759 8.56784 -5.71926 0.0502941 1 
14104 1 5.57112 10.4783 -5.26647 0.0431345 1 