ITEM: TIMESTEP
0
ITEM: NUMBER OF ATOMS
35871
ITEM: BOX BOUNDS xy xz yz pp pp ss
-7.7711661110000003e+00 2.8494275740900002e+02 -7.7711661110000003e+00
0.0000000000000000e+00 7.0418562731999998e+01 0.0000000000000000e+00
-9.8395059155923846e+01 1.0596373662270787e+02 0.0000000000000000e+00
ITEM: ATOMS id type x y z c_csym c_cna 
1 1 0.353356 67.7542 -0.524378 7.11706 5 
2 1 2.53911 69.8391 -1.06726 5.92459 5 
3 1 0.460654 69.1876 -10.2536 0.000336382 1 
4 1 1.87233 68.5123 -7.84941 0.00213671 1 
5 1 0.5317 68.5672 -5.31582 0.0148008 1 
6 1 3.28501 67.8218 -5.44145 0.0272451 1 
7 1 1.30551 65.8474 -4.83014 0.021118 1 
8 1 1.93171 67.8357 -2.88575 0.290139 1 
9 1 2.75382 65.1908 -2.40006 0.377409 1 
10 1 0.752894 63.1362 -1.92261 6.95769 5 
11 1 1.41259 64.8741 -0.0235548 9.38055 5 
12 1 5.26641 69.82 -6.09204 0.0274243 1 
13 1 3.89515 69.827 -3.61778 0.143876 1 
14 1 6.68298 69.2269 -3.63684 0.22034 1 
15 1 4.67624 67.1434 -2.95371 0.253018 1 
16 1 5.32215 69.1048 -1.21174 6.47373 5 
17 1 3.24218 67.1616 -0.159065 7.49018 5 
18 1 6.20704 66.6287 -0.380822 2.16348 5 
19 1 4.21556 64.5778 0.143121 3.271 5 
20 1 8.09516 68.7087 -1.18508 1.2937 5 
24 1 1.17267 67.0597 -14.6746 2.35004e-05 1 
25 1 1.80813 69.1087 -12.7761 5.38484e-05 1 
26 1 2.58652 66.3971 -12.2694 7.74989e-05 1 
27 1 0.600356 64.4283 -11.6483 0.000142941 1 
28 1 1.23671 66.4725 -9.74816 0.000289625 1 
29 1 2.01914 63.7622 -9.24425 0.000867447 1 
30 1 0.673883 63.8255 -6.73678 0.00647644 1 
31 1 1.46644 61.1126 -6.23941 0.0451431 1 
32 1 0.145621 61.1256 -3.80864 0.535951 1 
33 1 0.858419 58.499 -2.94317 4.7361 5 
34 1 0.209468 56.8805 -0.634436 10.201 5 
35 1 4.57054 68.3657 -12.895 8.84815e-05 1 
36 1 3.22167 68.4434 -10.3718 0.000334419 1 
37 1 5.98548 67.7047 -10.4869 0.000574621 1 
38 1 4.00241 65.7344 -9.8617 0.000486278 1 
39 1 4.63733 67.7768 -7.96293 0.00533781 1 
40 1 2.65466 65.8012 -7.34216 0.00221377 1 
41 1 5.41998 65.0824 -7.44366 0.00319342 1 
42 1 3.44379 63.0975 -6.82933 0.00753257 1 
43 1 4.07803 65.1373 -4.92029 0.015015 1 
44 1 2.12113 63.1462 -4.32492 0.0989512 1 
45 1 4.8418 62.452 -4.35949 0.0805888 1 
46 1 2.86428 60.4619 -3.7235 0.196539 1 
47 1 3.50946 62.5315 -1.70714 0.827354 5 
48 1 1.57929 60.5966 -1.0618 6.53075 5 
49 1 4.35205 59.8606 -1.38716 5.45593 5 
50 1 2.59931 57.9306 -0.388357 12.7898 5 
51 1 7.96784 69.6721 -11.1195 0.000391934 1 
52 1 6.61969 69.7538 -8.5981 0.00215026 1 
53 1 9.38423 69.0146 -8.70429 0.00187992 1 
54 1 7.39744 67.0529 -8.06509 0.00344258 1 
55 1 8.03214 69.1144 -6.17708 0.0116248 1 
56 1 6.04526 67.1411 -5.51103 0.0372605 1 
57 1 8.80361 66.4156 -5.6485 0.0178716 1 
58 1 6.82556 64.448 -5.02997 0.0259229 1 
59 1 7.44782 66.5435 -3.0613 0.175783 1 
60 1 5.48598 64.5245 -2.45434 0.160937 1 
61 1 8.2431 63.8406 -2.70238 0.123406 1 
62 1 6.29698 61.7993 -2.01629 0.169808 1 
63 1 6.9351 63.8821 -0.1963 3.06641 5 
64 1 10.8078 68.3577 -6.28278 0.022531 1 
65 1 9.41823 68.5102 -3.77795 0.0870196 1 
66 1 12.2611 67.6913 -3.86112 0.894049 5 
67 1 10.2304 65.7972 -3.28777 0.13236 1 
68 1 10.8799 68.0015 -1.5028 2.78903 5 
69 1 9.01027 66.0143 -0.706525 2.32476 5 
70 1 11.7516 65.3654 -1.02162 4.63056 5 
71 1 9.62273 63.228 -0.471835 3.72322 5 
72 1 14.2275 69.6289 -4.58613 0.144647 1 
73 1 12.9465 69.8172 -2.15257 5.67248 5 
74 1 15.6441 69.044 -1.98371 6.09223 5 
75 1 13.7961 67.4067 -0.726694 14.9811 5 
85 1 0.74319 59.6711 -13.0427 0.000206379 1 
86 1 0.172674 57.0382 -10.0232 0.00201655 1 
95 1 3.9357 66.3175 -14.7926 3.33668e-05 1 
96 1 1.95067 64.3496 -14.1687 3.92326e-05 1 
97 1 4.71404 63.6091 -14.2852 3.74125e-05 1 
98 1 2.72929 61.6405 -13.6623 9.08668e-05 1 
99 1 3.36603 63.6883 -11.7624 0.000157457 1 
100 1 1.38115 61.7177 -11.145 0.000433667 1 
101 1 4.14464 60.9807 -11.253 0.000339354 1 
102 1 2.16129 59.0089 -10.6323 0.00155374 1 
103 1 2.80167 61.0535 -8.73449 0.00352018 1 
104 1 0.817825 59.0769 -8.12329 0.0151124 1 
105 1 3.56723 58.3504 -8.1943 0.0108626 1 
106 1 1.59487 56.3821 -7.59596 0.0120965 1 
107 1 2.21299 58.4274 -5.61828 0.126782 1 
108 1 0.259437 56.4502 -5.1154 0.212126 1 
109 1 2.99437 55.7149 -5.16321 0.0528447 1 
110 1 0.983272 53.7765 -4.4034 0.761107 5 
111 1 1.66576 55.777 -2.5985 4.10084 5 
112 1 2.41811 53.0881 -1.87046 6.43303 5 
113 1 0.404641 51.1165 -1.56722 7.36366 5 
119 1 6.69839 65.576 -14.9109 4.59118e-05 1 
120 1 7.33329 67.6239 -13.0133 0.000111012 1 
121 1 5.35011 65.6572 -12.3853 0.000102548 1 
122 1 8.11269 64.9175 -12.5017 0.000122308 1 
123 1 6.12818 62.951 -11.8767 8.92006e-05 1 
124 1 6.76527 65.001 -9.97347 0.000344977 1 
125 1 4.78292 63.0299 -9.35059 0.000778916 1 
126 1 7.54001 62.2959 -9.46832 0.00111908 1 
127 1 5.55483 60.3227 -8.83787 0.00203284 1 
128 1 6.189 62.3779 -6.93095 0.00912116 1 
129 1 4.20703 60.3964 -6.2966 0.0211019 1 
130 1 6.97074 59.6638 -6.44772 0.00488865 1 
131 1 4.96864 57.6827 -5.78793 0.0165499 1 
132 1 5.61653 59.7323 -3.93394 0.0566942 1 
133 1 3.63461 57.7449 -3.19078 0.258428 1 
134 1 6.41387 57.0016 -3.44041 0.113044 1 
135 1 4.40638 55.0579 -2.79159 3.40557 5 
136 1 5.20433 57.04 -0.836858 8.17857 5 
137 1 1.91098 55.0135 0.285869 3.88037 5 
138 1 4.61546 54.2362 -0.213468 7.72146 5 
139 1 3.95333 51.6367 0.309717 6.86267 5 
141 1 9.31531 69.5895 -13.6476 0.000112265 1 
142 1 12.0774 68.8456 -13.7711 0.000145928 1 
143 1 10.0952 66.8815 -13.1327 0.000126696 1 
144 1 10.7291 68.9277 -11.2399 0.000381495 1 
145 1 8.74711 66.9659 -10.6011 0.000347491 1 
146 1 11.5106 66.2216 -10.7218 0.000368478 1 
147 1 9.5294 64.2609 -10.0906 0.000722996 1 
148 1 10.1608 66.3121 -8.18966 0.00218711 1 
149 1 8.17974 64.3511 -7.56409 0.00284844 1 
150 1 10.9584 63.6044 -7.68007 0.00836499 1 
151 1 8.9574 61.6458 -7.08242 0.00686384 1 
152 1 9.61095 63.7086 -5.17923 0.0154895 1 
153 1 7.60565 61.7322 -4.56627 0.0201664 1 
154 1 10.3988 61.0047 -4.73679 0.0669577 1 
155 1 8.42447 59.0017 -4.08866 0.0418074 1 
156 1 9.07529 61.0826 -2.28356 0.192729 1 
157 1 7.07795 59.1021 -1.67492 3.36281 5 
158 1 9.85044 58.3856 -1.62258 2.05933 5 
159 1 7.97742 56.3907 -1.13769 7.05015 5 
160 1 15.475 70.1488 -12.0135 0.00056916 1 
161 1 13.4911 68.1825 -11.3647 0.000620135 1 
162 1 14.1249 70.2257 -9.4925 0.00182828 1 
163 1 12.1459 68.2641 -8.82829 0.00253944 1 
164 1 14.9087 67.5176 -8.95144 0.00559813 1 
165 1 12.934 65.5607 -8.30965 0.00296593 1 
166 1 13.5728 67.595 -6.41219 0.0445957 1 
167 1 11.5852 65.6577 -5.79984 0.0276547 1 
168 1 14.3674 64.9121 -5.86888 0.0411883 1 
169 1 12.4132 62.9633 -5.23941 0.0828496 1 
170 1 13.0425 65.0446 -3.3807 0.974674 5 
171 1 11.0638 63.0785 -2.79465 0.417872 1 
172 1 13.8443 62.341 -2.67155 6.39106 5 
173 1 11.886 60.407 -2.42238 1.19018 1 
174 1 12.378 62.7507 -0.0411977 10.1017 5 
175 1 10.6467 60.4394 -0.0753912 8.81707 5 
176 1 13.3168 60.1889 0.0472609 7.36048 5 
177 1 16.89 69.483 -9.61022 0.00275892 1 
178 1 15.5471 69.5512 -7.0924 0.0151147 1 
179 1 18.2943 68.8202 -7.1815 0.0072961 1 
180 1 16.3071 66.8572 -6.48518 0.0397204 1 
181 1 16.9476 68.8719 -4.63174 0.0640664 1 
182 1 14.9877 66.9683 -3.83751 0.603053 5 
183 1 17.7059 66.1811 -4.03862 0.0641164 1 
184 1 15.7461 64.2725 -3.32209 0.297559 1 
185 1 16.4454 66.3275 -1.33456 6.42722 5 
186 1 14.341 64.5541 -0.752545 8.55613 5 
187 1 16.8372 63.4259 -0.802335 7.27386 5 
188 1 15.9409 60.6095 -0.123666 7.53546 5 
189 1 21.678 70.1657 -5.41098 0.0346928 1 
190 1 19.6762 68.1769 -4.73559 0.0514653 1 
191 1 20.3302 70.2666 -2.81711 0.389621 1 
192 1 18.3372 68.2193 -2.13843 0.686222 1 
193 1 21.0378 67.4861 -2.38806 0.348961 1 
194 1 19.1527 65.4645 -1.66665 3.38539 5 
195 1 19.3288 67.3999 0.368608 7.68264 5 
196 1 23.0685 69.5123 -3.08956 0.19495 1 
197 1 21.8493 69.4595 -0.554641 4.11636 5 
198 1 24.515 68.7903 -0.911167 7.73695 5 
199 1 22.1783 66.6509 -0.0455539 7.46187 5 
228 1 0.105816 57.6235 -14.9403 0.000108129 1 
230 1 0.883737 54.9157 -14.4313 0.000167786 1 
231 1 1.52185 56.963 -12.5324 0.000414384 1 
232 1 2.3 54.258 -12.0182 0.000792095 1 
233 1 0.311915 52.2896 -11.408 0.000812499 1 
234 1 0.954769 54.3359 -9.50126 0.0050278 1 
235 1 1.73272 51.6362 -8.98872 0.00528033 1 
236 1 0.382006 51.7245 -6.49346 0.0442879 1 
237 1 1.15645 49.0166 -6.00172 0.0136616 1 
238 1 0.591394 46.353 -3.034 0.069379 1 
255 1 5.49141 60.9016 -13.7774 4.9006e-05 1 
256 1 3.50712 58.9325 -13.1527 0.000189222 1 
257 1 6.26676 58.1947 -13.2682 0.000102136 1 
258 1 4.28325 56.2263 -12.6406 0.00020058 1 
259 1 4.91781 58.2741 -10.7365 0.000878306 1 
260 1 2.93803 56.3048 -10.1131 0.0013455 1 
261 1 5.69354 55.5676 -10.2258 0.000374453 1 
262 1 3.70923 53.601 -9.58764 0.00465174 1 
263 1 4.34687 55.6402 -7.68884 0.00319374 1 
264 1 2.35014 53.6782 -7.03368 0.0491159 1 
265 1 5.11618 52.9422 -7.1582 0.00914611 1 
266 1 3.15158 50.9742 -6.55705 0.0139008 1 
267 1 3.75026 52.9997 -4.60744 0.106046 1 
268 1 1.77338 51.0856 -4.06255 0.177122 1 
269 1 4.58823 50.3073 -4.12868 0.415236 1 
270 1 2.57594 48.3037 -3.65421 0.121207 1 
271 1 3.14103 50.2432 -1.80592 7.68413 5 
272 1 1.17489 48.3225 -1.15302 7.11998 5 
273 1 4.09452 47.4929 -1.26239 8.86906 5 
274 1 2.10225 45.7177 -0.573859 6.82067 5 
286 1 7.47609 62.8692 -14.4032 2.86031e-05 1 
287 1 10.2381 62.1288 -14.5239 4.30394e-05 1 
288 1 8.25239 60.1627 -13.897 4.47088e-05 1 
289 1 8.88965 62.2124 -11.996 0.000150686 1 
290 1 6.90346 60.2441 -11.369 0.000244374 1 
291 1 9.66648 59.5066 -11.4937 0.000173993 1 
292 1 7.67786 57.5375 -10.862 0.0002491 1 
293 1 8.31847 59.5874 -8.96956 0.000925578 1 
294 1 6.32612 57.6142 -8.32942 0.00166016 1 
295 1 9.09447 56.8823 -8.46307 0.00163671 1 
296 1 7.10521 54.909 -7.81143 0.00268203 1 
297 1 7.74917 56.9536 -5.9435 0.0138267 1 
298 1 5.76265 54.9668 -5.27092 0.0227162 1 
299 1 8.51305 54.265 -5.37303 0.0330767 1 
300 1 6.53364 52.2933 -4.71405 0.0284693 1 
301 1 7.17025 54.3254 -2.77746 1.77399 5 
302 1 5.17636 52.3322 -2.16993 2.56457 5 
303 1 7.9155 51.7167 -2.17282 0.593524 1 
304 1 5.91309 49.7617 -1.18882 8.3711 5 
305 1 6.70204 52.1958 0.476482 11.0949 5 
314 1 12.8574 66.1388 -13.2551 0.000160394 1 
315 1 10.8753 64.1762 -12.6213 0.000233749 1 
316 1 13.6379 63.4351 -12.7433 0.000287446 1 
317 1 11.654 61.4728 -12.1185 0.000204351 1 
318 1 12.2957 63.5187 -10.2088 0.0015674 1 
319 1 10.308 61.5583 -9.5949 0.00119905 1 
320 1 13.0767 60.8204 -9.7137 0.0016211 1 
321 1 11.0877 58.8539 -9.09509 0.000752359 1 
322 1 11.742 60.9118 -7.2013 0.012071 1 
323 1 9.75001 58.9334 -6.58194 0.0063532 1 
324 1 12.5183 58.2097 -6.69357 0.00384378 1 
325 1 10.5263 56.2404 -6.06599 0.0113553 1 
326 1 11.199 58.3047 -4.16299 0.0539596 1 
327 1 9.22378 56.3271 -3.56663 0.152652 1 
328 1 11.9642 55.6353 -3.64774 0.0679445 1 
329 1 9.9495 53.6903 -2.92672 0.178022 1 
330 1 10.7173 55.8366 -1.02445 0.549625 1 
331 1 8.80103 53.8589 -0.241466 3.07976 5 
332 1 11.5025 53.0737 -0.625415 0.474207 1 
333 1 9.47323 51.1558 0.0843127 2.39784 5 
336 1 16.8265 70.071 -14.5336 0.000161683 1 
337 1 14.8404 68.1032 -13.8944 0.000194337 1 
338 1 17.6032 67.3639 -14.015 0.000193719 1 
339 1 15.6196 65.3981 -13.3772 0.000201328 1 
340 1 16.2535 67.4416 -11.4858 0.000925734 1 
341 1 14.2737 65.4787 -10.8435 0.000505701 1 
342 1 17.0324 64.7402 -10.9619 0.000630357 1 
343 1 15.0563 62.7791 -10.3277 0.00138903 1 
344 1 15.6915 64.8219 -8.41765 0.00293398 1 
345 1 13.7265 62.8664 -7.77885 0.0130675 1 
346 1 16.4725 62.1215 -7.8993 0.00994632 1 
347 1 14.5097 60.1728 -7.30962 0.0155556 1 
348 1 15.1593 62.2247 -5.29624 0.107688 1 
349 1 13.2054 60.2744 -4.81125 0.13484 1 
350 1 15.9355 59.5106 -4.91799 0.0622358 1 
351 1 13.958 57.5607 -4.29879 0.0386916 1 
352 1 14.6271 59.5961 -2.37052 4.88504 5 
353 1 12.6888 57.7553 -1.70821 1.20778 5 
354 1 15.4257 56.834 -1.9551 6.75852 5 
355 1 13.4097 55.0425 -1.32375 1.0221 5 
356 1 19.5904 69.3322 -14.6513 0.000112296 1 
357 1 18.2389 69.4105 -12.1303 0.000510751 1 
358 1 20.999 68.6758 -12.245 0.000298274 1 
359 1 19.0108 66.7062 -11.6031 0.000703067 1 
360 1 19.6456 68.7529 -9.71729 0.00139121 1 
361 1 17.6579 66.782 -9.05876 0.00447584 1 
362 1 20.4105 66.0493 -9.19238 0.00183738 1 
363 1 18.437 64.0796 -8.53776 0.00281788 1 
364 1 19.0498 66.123 -6.63711 0.0114714 1 
365 1 17.0875 64.1596 -5.96908 0.0195611 1 
366 1 19.8315 63.3985 -6.12549 0.0119688 1 
367 1 17.8829 61.4401 -5.48214 0.0478399 1 
368 1 18.4494 63.462 -3.56751 0.241235 1 
369 1 16.6125 61.5002 -2.81882 2.47406 5 
370 1 19.3459 60.6814 -3.14047 6.57254 5 
371 1 17.3312 58.7685 -2.58478 6.96762 5 
372 1 18.548 60.0981 -0.585523 7.92087 5 
373 1 14.7118 57.8073 0.481912 10.1382 5 
374 1 17.4431 57.4135 -0.0771255 10.3571 5 
375 1 24.3961 69.993 -10.4738 0.000445163 1 
376 1 22.4006 68.0223 -9.83898 0.000942679 1 
377 1 23.0372 70.0794 -7.94931 0.00311047 1 
378 1 21.0385 68.1009 -7.30168 0.00636142 1 
379 1 23.7968 67.371 -7.44677 0.00230393 1 
380 1 21.8063 65.3859 -6.80423 0.00672829 1 
381 1 22.4192 67.4387 -4.92368 0.0171227 1 
382 1 20.4368 65.434 -4.27897 0.0547033 1 
383 1 23.221 64.7144 -4.44215 0.0751429 1 
384 1 21.2226 62.6875 -3.72687 0.214003 1 
385 1 21.8736 64.7631 -2.01864 6.20985 5 
386 1 19.6 62.7077 -1.20317 7.57895 5 
387 1 22.5826 62.1403 -1.25372 8.75474 5 
388 1 20.7521 61.0335 0.690637 6.37342 5 
389 1 25.7995 69.3458 -8.07862 0.00146218 1 
390 1 24.4362 69.4328 -5.56945 0.0177616 1 
391 1 27.208 68.713 -5.68815 0.0189021 1 
392 1 25.1951 66.7385 -5.06362 0.0309114 1 
393 1 25.8902 68.8321 -3.20194 0.418549 1 
394 1 23.8008 66.7457 -2.58796 0.257415 1 
395 1 26.5866 66.1796 -2.64619 0.242619 1 
396 1 24.5983 64.1007 -1.94954 2.10689 5 
397 1 25.2069 66.1574 -0.21309 9.15514 5 
398 1 30.5862 70.0209 -3.85779 0.0376976 1 
399 1 28.5728 68.1216 -3.22242 0.138519 1 
400 1 29.1417 70.2288 -1.30843 6.84298 5 
401 1 27.185 68.3207 -0.479113 5.67418 5 
402 1 29.9624 67.561 -0.871672 0.26025 1 
403 1 27.9996 65.6698 -0.233021 4.81914 5 
404 1 31.9935 69.334 -1.50853 6.19126 5 
438 1 0.450009 47.5327 -12.7971 0.000144166 1 
465 1 3.64678 54.1778 -14.5429 0.000148509 1 
466 1 1.66119 52.2096 -13.9227 0.000209225 1 
467 1 4.42287 51.4723 -14.0356 0.000176847 1 
468 1 2.43786 49.5035 -13.416 0.00019462 1 
469 1 3.07647 51.5547 -11.509 0.000791446 1 
470 1 1.08857 49.585 -10.9002 0.000563423 1 
471 1 3.85309 48.8495 -11.0072 0.000626968 1 
472 1 1.86736 46.8761 -10.3923 0.000445107 1 
473 1 2.50712 48.9305 -8.49467 0.00304521 1 
474 1 0.517009 46.9549 -7.88927 0.00181538 1 
475 1 3.29173 46.2171 -7.98518 0.00347188 1 
476 1 1.29868 44.2432 -7.37062 0.00186767 1 
477 1 1.94646 46.283 -5.50051 0.00934935 1 
478 1 2.73252 43.5765 -4.96727 0.0648171 1 
479 1 0.767428 41.6111 -4.32469 0.0790578 1 
480 1 1.43743 43.6652 -2.4756 0.23331 1 
481 1 2.21775 40.9956 -1.7245 0.538386 1 
482 1 0.267113 39.0766 -1.44317 5.60028 5 
506 1 6.40639 53.4396 -14.6611 0.000115329 1 
507 1 7.04185 55.4887 -12.76 0.000103422 1 
508 1 5.05786 53.5216 -12.1278 0.000591779 1 
509 1 7.81611 52.7851 -12.2519 0.000293947 1 
510 1 5.83489 50.8186 -11.6236 0.000437791 1 
511 1 6.46727 52.8671 -9.70998 0.00142 1 
512 1 4.49131 50.901 -9.08885 0.00186552 1 
513 1 7.24737 50.1698 -9.20762 0.0023779 1 
514 1 5.27139 48.1982 -8.59742 0.00358139 1 
515 1 5.91051 50.2524 -6.66358 0.0192209 1 
516 1 3.93399 48.2704 -6.09938 0.0290488 1 
517 1 6.69036 47.5622 -6.16989 0.03247 1 
518 1 4.72701 45.5757 -5.55186 0.060918 1 
519 1 5.37545 47.6523 -3.65439 0.523934 1 
520 1 3.369 45.6033 -3.10319 0.705152 5 
521 1 6.08796 44.9719 -2.9405 0.743075 5 
522 1 4.14437 42.9888 -2.39029 0.536618 5 
523 1 4.94616 45.0854 -0.01548 8.26767 5 
524 1 2.87241 43.0561 0.236357 7.52476 5 
525 1 5.50126 42.2231 -0.0687972 7.32554 5 
544 1 11.0148 59.4233 -14.0204 4.78379e-05 1 
545 1 9.02768 57.4565 -13.3917 6.02778e-05 1 
546 1 11.7902 56.7177 -13.5184 7.83492e-05 1 
547 1 9.80212 54.7513 -12.8866 0.000113387 1 
548 1 10.4416 56.8017 -10.9901 0.00025742 1 
549 1 8.45263 54.8335 -10.3517 0.000414434 1 
550 1 11.2131 54.0986 -10.4846 0.000734145 1 
551 1 9.22483 52.1349 -9.84216 0.000970523 1 
552 1 9.86275 54.1852 -7.93986 0.00400882 1 
553 1 7.87718 52.2214 -7.28523 0.00414543 1 
554 1 10.6276 51.4914 -7.43723 0.0109683 1 
555 1 8.64261 49.535 -6.76736 0.0351311 1 
556 1 9.27877 51.6037 -4.8447 0.0513261 1 
557 1 7.30525 49.6412 -4.13366 0.309496 1 
558 1 10.0572 48.902 -4.40558 0.024247 1 
559 1 8.07728 46.9326 -3.742 0.105366 1 
560 1 8.75527 49.0314 -1.77025 0.415841 1 
561 1 6.82021 47.0713 -1.12148 3.11568 5 
562 1 9.53177 46.3355 -1.44939 2.26267 5 
563 1 7.67385 44.3055 -0.54472 3.32928 5 
577 1 13.0009 61.3883 -14.6466 6.07205e-05 1 
578 1 15.7634 60.6482 -14.7704 8.62938e-05 1 
579 1 13.7778 58.6836 -14.1454 7.35287e-05 1 
580 1 14.4177 60.7329 -12.2403 0.000279113 1 
581 1 12.431 58.7688 -11.6185 0.000192402 1 
582 1 15.1945 58.0287 -11.7453 0.000345414 1 
583 1 13.2056 56.0634 -11.1205 0.000373117 1 
584 1 13.8522 58.1167 -9.21957 0.00103594 1 
585 1 11.861 56.151 -8.59227 0.0014254 1 
586 1 14.6273 55.4069 -8.73145 0.00158498 1 
587 1 12.6269 53.4478 -8.09349 0.00419382 1 
588 1 13.2873 55.5031 -6.20338 0.00875599 1 
589 1 11.2767 53.5568 -5.53794 0.0246039 1 
590 1 14.0599 52.7945 -5.73583 0.0108257 1 
591 1 12.0508 50.8563 -5.09478 0.0223977 1 
592 1 12.7216 52.9422 -3.19965 0.0559181 1 
593 1 10.7082 50.9908 -2.51994 0.0798511 1 
594 1 13.5026 50.2339 -2.82829 0.140865 1 
595 1 11.5529 48.2764 -2.11269 0.234801 1 
596 1 12.2472 50.4012 -0.315976 2.38506 5 
607 1 18.3802 64.6599 -13.4991 0.000190367 1 
608 1 16.3991 62.6956 -12.8655 0.000309564 1 
609 1 19.1589 61.9567 -12.9907 0.0002939 1 
610 1 17.1791 59.9928 -12.3651 0.000328266 1 
611 1 17.8128 62.0387 -10.4507 0.00121645 1 
612 1 15.8403 60.0773 -9.83221 0.00187339 1 
613 1 18.5985 59.3349 -9.95987 0.00127411 1 
614 1 16.6167 57.3712 -9.35238 0.00226019 1 
615 1 17.2731 59.409 -7.4225 0.0107133 1 
616 1 15.2785 57.4587 -6.83513 0.00814155 1 
617 1 18.0543 56.6991 -6.97635 0.0271037 1 
618 1 16.0687 54.7378 -6.35904 0.00924397 1 
619 1 16.7254 56.7662 -4.49884 0.08321 1 
620 1 14.7393 54.8413 -3.85405 0.0252326 1 
621 1 17.5388 54.0531 -3.97742 0.101856 1 
622 1 15.5328 52.1362 -3.41796 0.0661967 1 
623 1 16.2269 54.1947 -1.48058 2.67318 5 
624 1 14.2805 52.3366 -0.951613 0.487658 1 
625 1 17.1205 51.5049 -1.18928 2.9768 5 
626 1 15.0064 49.698 -0.645026 3.94768 5 
631 1 22.3532 68.594 -14.7686 7.89859e-05 1 
632 1 20.3644 66.6265 -14.1351 0.00015455 1 
633 1 23.127 65.8886 -14.2578 0.000119495 1 
634 1 21.1405 63.9222 -13.6241 0.000170599 1 
635 1 21.7698 65.971 -11.7293 0.000366357 1 
636 1 19.7875 64.0028 -11.0877 0.000614701 1 
637 1 22.5467 63.2669 -11.2193 0.000422277 1 
638 1 20.5704 61.2996 -10.5814 0.00085485 1 
639 1 21.1905 63.3414 -8.67953 0.00213558 1 
640 1 19.2264 61.3731 -8.03563 0.00374855 1 
641 1 21.9843 60.6407 -8.16591 0.00705282 1 
642 1 20.027 58.669 -7.55564 0.0248187 1 
643 1 20.65 60.6828 -5.62672 0.055951 1 
644 1 18.7108 58.7034 -5.01805 0.59593 5 
645 1 21.4319 58.0281 -5.02641 0.379672 5 
646 1 19.5306 56.0719 -4.53191 0.575713 5 
647 1 20.1313 58.128 -1.90442 11.6426 5 
648 1 18.2212 56.0277 -2.16785 6.49137 5 
649 1 20.9749 55.4103 -2.03623 0.817294 5 
650 1 19.0118 53.4478 -1.41921 4.72736 5 
652 1 25.1174 67.8546 -14.8869 6.03629e-05 1 
653 1 25.7534 69.9059 -12.9928 8.4101e-05 1 
654 1 23.7602 67.9396 -12.3652 0.000233184 1 
655 1 26.526 67.2007 -12.4854 0.000156813 1 
656 1 24.5331 65.2349 -11.8571 0.000275756 1 
657 1 25.1642 67.2882 -9.96714 0.000613118 1 
658 1 23.1721 65.316 -9.33034 0.000786132 1 
659 1 25.9363 64.5848 -9.45945 0.00104297 1 
660 1 23.9498 62.6137 -8.81296 0.00188984 1 
661 1 24.5752 64.6665 -6.93427 0.00804999 1 
662 1 22.5907 62.6745 -6.27009 0.0146738 1 
663 1 25.3461 61.9764 -6.39638 0.00793348 1 
664 1 23.3869 59.9939 -5.70473 0.0262222 1 
665 1 23.9961 62.0392 -3.83555 0.0481385 1 
666 1 22.0441 60.0283 -3.0837 6.50927 5 
667 1 24.8017 59.3935 -3.21152 0.218874 1 
668 1 22.8727 57.4334 -2.54149 0.679172 1 
669 1 23.4059 59.6456 -0.450376 6.29503 5 
670 1 22.0515 57.3409 0.20533 6.86222 5 
671 1 24.5692 56.6384 -0.326623 3.829 5 
672 1 28.5196 69.1637 -13.1065 6.54518e-05 1 
673 1 27.1621 69.2536 -10.5908 0.000260021 1 
674 1 29.9306 68.5087 -10.7003 0.000257015 1 
675 1 27.9332 66.5498 -10.0862 0.000504776 1 
676 1 28.5704 68.6065 -8.1892 0.00148226 1 
677 1 26.5649 66.6449 -7.57512 0.00283616 1 
678 1 29.3375 65.9024 -7.6905 0.00338683 1 
679 1 27.3283 63.9461 -7.06052 0.00787086 1 
680 1 27.953 66.0245 -5.18788 0.0326251 1 
681 1 25.9648 64.0548 -4.49631 0.0405786 1 
682 1 28.7019 63.3238 -4.68258 0.0542747 1 
683 1 26.7288 61.3668 -3.98424 0.088966 1 
684 1 27.3601 63.4925 -2.06793 0.171957 1 
685 1 25.4203 61.5524 -1.33297 4.22242 5 
686 1 28.2304 60.8222 -1.70958 3.51922 5 
687 1 26.2129 58.8983 -0.794619 4.17341 5 
688 1 33.3323 69.8032 -8.89957 0.00136167 1 
689 1 31.3385 67.8507 -8.29133 0.0018033 1 
690 1 31.969 69.8964 -6.38572 0.00658936 1 
691 1 29.959 67.9639 -5.77812 0.0141344 1 
692 1 32.7501 67.1722 -5.89436 0.0159672 1 
693 1 30.7384 65.2464 -5.30643 0.0194364 1 
694 1 31.3341 67.3046 -3.42686 0.0784015 1 
695 1 29.3001 65.4367 -2.83776 0.191508 1 
696 1 32.157 64.568 -2.93743 6.58107 5 
697 1 30.123 62.7412 -2.3871 0.196337 1 
698 1 30.7382 64.9114 -0.611819 7.41766 5 
699 1 31.5481 62.3068 -0.126177 9.94938 5 
700 1 34.7501 69.123 -6.48276 0.0133183 1 
701 1 33.377 69.191 -4.01353 0.0599156 1 
702 1 36.1778 68.46 -4.00952 0.139097 1 
703 1 34.1894 66.4454 -3.50903 0.236051 1 
704 1 34.7565 68.4516 -1.62459 6.59415 5 
705 1 32.7667 66.6417 -1.1663 7.4206 5 
706 1 35.5536 65.6887 -0.895793 8.01395 5 
707 1 33.3149 64.6029 0.706032 7.89032 5 
708 1 39.5145 69.8 -2.14812 0.243781 1 
709 1 37.5111 67.7994 -1.35013 1.63618 5 
710 1 38.3048 69.8908 0.466186 5.14392 5 
711 1 41.0376 69.1794 0.107638 3.91232 5 
779 1 2.57837 44.7436 -14.8076 4.62962e-05 1 
780 1 0.5925 42.7746 -14.1823 3.93927e-05 1 
781 1 1.22814 44.8249 -12.2868 0.000111879 1 
782 1 2.00782 42.1177 -11.7763 0.000163767 1 
783 1 0.659922 42.1978 -9.2552 0.000989542 1 
784 1 1.44561 39.4937 -8.75132 0.00122113 1 
785 1 0.104381 39.5782 -6.24777 0.00648921 1 
786 1 0.909438 36.8699 -5.74139 0.0342572 1 
787 1 0.358827 34.2785 -2.76746 0.554512 1 
822 1 5.19901 48.7661 -13.5317 0.000168504 1 
823 1 3.2149 46.7958 -12.9093 0.000149814 1 
824 1 5.97496 46.0584 -13.0271 0.000174203 1 
825 1 3.99209 44.0879 -12.4012 0.0001677 1 
826 1 4.63083 46.1417 -10.5006 0.000652253 1 
827 1 2.64595 44.1681 -9.88054 0.000524474 1 
828 1 5.40619 43.4354 -9.98965 0.00089597 1 
829 1 3.4266 41.4631 -9.36459 0.00146643 1 
830 1 4.06857 43.5165 -7.46492 0.00615397 1 
831 1 2.09069 41.5381 -6.84002 0.0142093 1 
832 1 4.83827 40.8183 -6.92773 0.0155079 1 
833 1 2.87714 38.8468 -6.33151 0.0185969 1 
834 1 3.51785 40.9127 -4.33869 0.129772 1 
835 1 1.5739 38.9314 -3.84147 0.144986 1 
836 1 4.26538 38.1646 -3.90427 0.0667296 1 
837 1 2.3161 36.2093 -3.19853 0.363998 1 
838 1 2.9397 38.2412 -1.29449 5.36602 5 
839 1 0.951752 36.4425 -0.349695 11.2097 5 
840 1 3.7049 35.445 -0.718653 6.58032 5 
841 1 1.60557 33.5293 -0.267002 5.74164 5 
870 1 9.16621 52.7007 -14.7865 8.8896e-05 1 
871 1 7.182 50.7341 -14.1569 0.000126778 1 
872 1 9.94106 49.9944 -14.2858 0.000135799 1 
873 1 7.9573 48.0274 -13.6556 0.000158518 1 
874 1 8.59155 50.0819 -11.7502 0.000412574 1 
875 1 6.61138 48.1141 -11.1235 0.000585449 1 
876 1 9.36536 47.3754 -11.2538 0.000688244 1 
877 1 7.38504 45.4066 -10.6186 0.000833447 1 
878 1 8.02156 47.4685 -8.7125 0.00444748 1 
879 1 6.04766 45.4944 -8.08008 0.00542542 1 
880 1 8.78161 44.7558 -8.20614 0.0077714 1 
881 1 6.81078 42.787 -7.56712 0.00681609 1 
882 1 7.43258 44.8523 -5.61929 0.0665562 1 
883 1 5.46905 42.8863 -5.00172 0.062566 1 
884 1 8.20706 42.1293 -5.17493 0.00448366 1 
885 1 6.23221 40.1522 -4.51734 0.0352819 1 
886 1 6.84202 42.2366 -2.62518 0.194506 1 
887 1 4.92231 40.1683 -1.91164 0.171936 1 
888 1 7.66358 39.4103 -2.18026 0.247663 1 
889 1 5.66247 37.4267 -1.58487 5.09141 5 
915 1 11.9276 51.9602 -14.9169 0.00010448 1 
916 1 12.5642 54.012 -13.0183 0.000202011 1 
917 1 10.5754 52.0472 -12.3843 0.000305307 1 
918 1 13.3384 51.3053 -12.5231 0.000418433 1 
919 1 11.3484 49.3412 -11.8886 0.000830917 1 
920 1 11.9839 51.3951 -9.98904 0.00196043 1 
921 1 9.99493 49.4337 -9.34291 0.00473143 1 
922 1 12.7587 48.6875 -9.5096 0.00208061 1 
923 1 10.7709 46.7219 -8.8627 0.00151231 1 
924 1 11.4035 48.7845 -6.97205 0.00644631 1 
925 1 9.41911 46.8227 -6.3184 0.0133626 1 
926 1 12.1927 46.0644 -6.49296 0.00774212 1 
927 1 10.1791 44.1023 -5.83502 0.0136495 1 
928 1 10.8219 46.1797 -3.99228 0.0727689 1 
929 1 8.83273 44.1941 -3.24375 0.138685 1 
930 1 11.5955 43.4441 -3.51309 0.123886 1 
931 1 9.60274 41.4641 -2.82536 0.118937 1 
932 1 10.4086 43.5691 -0.923036 3.07225 5 
933 1 8.14202 41.4662 -0.362286 6.6948 5 
934 1 10.8294 40.7349 -0.474436 6.82365 5 
935 1 9.24142 38.4272 0.054949 7.28761 5 
956 1 16.5411 57.9431 -14.2718 8.64999e-05 1 
957 1 14.5538 55.9775 -13.6474 0.000112798 1 
958 1 17.3189 55.2362 -13.7767 8.97401e-05 1 
959 1 15.3297 53.2701 -13.1525 0.000195702 1 
960 1 15.9716 55.3211 -11.2541 0.000358376 1 
961 1 13.9786 53.3569 -10.627 0.000863266 1 
962 1 16.7509 52.6133 -10.7656 0.000620249 1 
963 1 14.7568 50.6495 -10.1416 0.0010519 1 
964 1 15.4056 52.6989 -8.25168 0.00284587 1 
965 1 13.4065 50.7419 -7.62002 0.00433884 1 
966 1 16.195 49.99 -7.7704 0.00378581 1 
967 1 14.1826 48.0327 -7.15818 0.0120922 1 
968 1 14.8679 50.0787 -5.27451 0.0222923 1 
969 1 12.8378 48.1303 -4.64928 0.0375492 1 
970 1 15.6405 47.3668 -4.8518 0.121623 1 
971 1 13.6586 45.4035 -4.11917 0.252684 1 
972 1 14.367 47.5106 -2.40754 0.555265 1 
973 1 12.2662 45.5998 -1.75826 2.53496 5 
974 1 15.0622 44.8819 -1.44347 7.11136 5 
975 1 13.115 42.8649 -1.24957 3.23996 5 
991 1 18.5257 59.9083 -14.8958 8.87083e-05 1 
993 1 19.3046 57.2027 -14.3988 7.40967e-05 1 
994 1 19.9401 59.2532 -12.4923 0.000259611 1 
995 1 17.9586 57.2875 -11.8739 0.0003018 1 
996 1 20.7218 56.5487 -11.9998 0.0003966 1 
997 1 18.7395 54.5803 -11.383 0.000359368 1 
998 1 19.3843 56.6297 -9.47895 0.00250478 1 
999 1 17.4007 54.6601 -8.8676 0.00253179 1 
1000 1 20.1679 53.9292 -8.98253 0.00156401 1 
1001 1 18.1873 51.9599 -8.38033 0.00249067 1 
1002 1 18.8526 54.017 -6.46153 0.0120313 1 
1003 1 16.8601 52.0369 -5.89225 0.0148934 1 
1004 1 19.6426 51.3059 -5.99568 0.0247396 1 
1005 1 17.6663 49.3227 -5.39553 0.0549162 1 
1006 1 18.3749 51.3793 -3.5445 0.252706 1 
1007 1 16.392 49.405 -2.93152 0.758405 5 
1008 1 19.1043 48.6632 -2.8483 0.763339 5 
1009 1 17.1594 46.7231 -2.57821 7.39472 5 
1010 1 17.9448 49.0673 0.0452783 11.824 5 
1011 1 16.1486 47.0791 -0.228516 11.4558 5 
1012 1 17.5234 45.017 0.943184 12.9078 5 
1025 1 23.903 63.184 -13.7508 0.00014783 1 
1026 1 21.9194 61.2185 -13.1189 0.000222611 1 
1027 1 24.6809 60.4802 -13.2475 0.000239682 1 
1028 1 22.7004 58.5153 -12.6199 0.000403718 1 
1029 1 23.3283 60.5657 -10.712 0.00099803 1 
1030 1 21.3583 58.5989 -10.0853 0.00312863 1 
1031 1 24.106 57.8667 -10.2088 0.00349032 1 
1032 1 22.1413 55.9005 -9.5929 0.00371578 1 
1033 1 22.7602 57.9543 -7.63846 0.0241018 1 
1034 1 20.8189 55.9821 -7.06121 0.0221534 1 
1035 1 23.5528 55.2575 -7.17759 0.00976534 1 
1036 1 21.5979 53.2888 -6.56814 0.0136286 1 
1037 1 22.2485 55.3614 -4.59422 0.0610514 1 
1038 1 20.2954 53.3751 -4.02489 0.0531429 1 
1039 1 23.0032 52.6116 -4.18936 0.0257845 1 
1040 1 21.0734 50.6119 -3.57918 0.0518752 1 
1041 1 21.7178 52.6729 -1.62892 4.06921 5 
1042 1 19.8506 50.6861 -1.04265 5.20744 5 
1043 1 22.4427 49.9154 -1.12362 5.3646 5 
1044 1 20.5386 47.7413 -0.394595 8.10187 5 
1052 1 25.8921 65.1492 -14.38 9.18589e-05 1 
1053 1 28.6592 64.4075 -14.4987 6.63206e-05 1 
1054 1 26.6679 62.4443 -13.8758 0.000152168 1 
1055 1 27.2996 64.4962 -11.9803 0.000277302 1 
1056 1 25.3084 62.5316 -11.3496 0.0004931 1 
1057 1 28.0736 61.7917 -11.4785 0.000654714 1 
1058 1 26.0841 59.8291 -10.8452 0.00140115 1 
1059 1 26.7068 61.8836 -8.95094 0.00296459 1 
1060 1 24.7277 59.9182 -8.29176 0.00563477 1 
1061 1 27.4808 59.181 -8.45058 0.00722974 1 
1062 1 25.5051 57.224 -7.81195 0.00800043 1 
1063 1 26.1217 59.2863 -5.87056 0.038215 1 
1064 1 24.1717 57.3256 -5.22123 0.0301569 1 
1065 1 26.9083 56.58 -5.4642 0.030938 1 
1066 1 24.9573 54.6045 -4.78947 0.0236139 1 
1067 1 25.6076 56.6851 -2.88392 0.227364 1 
1068 1 23.6508 54.655 -2.20031 0.171782 1 
1069 1 26.3637 53.888 -2.47151 0.110555 1 
1070 1 24.4279 51.913 -1.88356 4.94061 5 
1071 1 24.979 53.8617 0.159736 7.32425 5 
1076 1 31.2856 68.4189 -13.2172 8.94783e-05 1 
1077 1 29.2943 66.4581 -12.6002 0.000115659 1 
1078 1 32.0624 65.7124 -12.7108 0.000163048 1 
1079 1 30.0692 63.7527 -12.0978 0.000241453 1 
1080 1 30.7051 65.8023 -10.1967 0.000584422 1 
1081 1 28.703 63.8456 -9.58421 0.00147207 1 
1082 1 31.4807 63.096 -9.70026 0.00146133 1 
1083 1 29.4776 61.1395 -9.09175 0.00337283 1 
1084 1 30.1003 63.196 -7.2039 0.00964288 1 
1085 1 28.0938 61.2441 -6.57386 0.0233028 1 
1086 1 30.8924 60.4814 -6.72825 0.0173321 1 
1087 1 28.8859 58.5304 -6.08326 0.0246467 1 
1088 1 29.4807 60.6137 -4.27016 0.174647 1 
1089 1 27.5413 58.6607 -3.50289 0.138505 1 
1090 1 30.3186 57.871 -3.73321 0.230139 1 
1091 1 28.3304 55.9358 -3.1935 0.268032 1 
1092 1 28.9358 58.1352 -1.15739 4.01342 5 
1093 1 27.1795 55.9183 -0.69078 3.92907 5 
1094 1 29.7781 55.2368 -1.04151 7.07571 5 
1095 1 27.6923 53.0934 -0.173858 7.61137 5 
1096 1 36.0343 69.6351 -13.9515 4.85468e-05 1 
1097 1 34.0497 67.6729 -13.3281 9.1022e-05 1 
1098 1 34.6829 69.7191 -11.4253 0.000207976 1 
1099 1 32.6972 67.7595 -10.8067 0.000329541 1 
1100 1 35.4609 67.0115 -10.9148 0.00035844 1 
1101 1 33.4766 65.052 -10.3005 0.000885451 1 
1102 1 34.1105 67.0928 -8.39404 0.00185177 1 
1103 1 32.119 65.1384 -7.79337 0.00412433 1 
1104 1 34.8968 64.3872 -7.87814 0.00831967 1 
1105 1 32.9023 62.4308 -7.3067 0.0109864 1 
1106 1 33.5456 64.4487 -5.38524 0.0579484 1 
1107 1 31.499 62.5403 -4.8661 0.0639638 1 
1108 1 34.3534 61.7554 -4.90485 0.248597 1 
1109 1 32.3366 59.8154 -4.38753 1.66461 5 