ITEM: TIMESTEP
0
ITEM: NUMBER OF ATOMS
8544
ITEM: BOX BOUNDS xy xz yz pp pp ss
0.0000000000000000e+00 1.5794127668199999e+02 4.7027458787000000e+01
0.0000000000000000e+00 4.3084081978999997e+01 0.0000000000000000e+00
-8.3169475080660234e+01 8.3224688953796743e+01 0.0000000000000000e+00
ITEM: ATOMS id type x y z c_csym c_cna 
324 1 54.1782 42.4332 -5.29526 0.0524086 1 
325 1 51.8193 42.8013 -2.27552 1.28483 5 
327 1 56.3313 43.0736 -14.0655 6.22854e-05 1 
328 1 56.4877 42.5298 -11.2589 0.000247923 1 
329 1 6.7975 0.453582 -10.9299 0.000346321 1 
330 1 53.9906 42.9925 -8.12209 0.0039135 1 
331 1 4.29277 0.917737 -7.8009 0.0088318 1 
332 1 4.4768 0.352949 -5.02331 0.116281 1 
333 1 49.3216 42.4008 -6.52025 0.0203015 1 
334 1 1.78939 1.44204 -4.60664 0.128636 1 
335 1 2.0034 1.05455 -1.73076 1.49119 5 
336 1 47.0689 42.5484 -0.60736 0.555876 1 
347 1 6.6411 0.99488 -13.7346 5.79179e-05 1 
349 1 51.6729 42.454 -12.4878 0.000240125 1 
350 1 3.97677 1.99867 -13.4007 6.83663e-05 1 
351 1 4.13115 1.45964 -10.5974 0.000665767 1 
352 1 1.9808 0.373829 -12.1484 0.000131838 1 
353 1 49.1624 42.9246 -9.33923 0.00145704 1 
354 1 112.377 2.4653 -10.2555 0.000713161 1 
355 1 112.534 1.93953 -7.44011 0.00981169 1 
381 1 1.82948 0.91158 -14.9555 2.05713e-05 1 
383 1 112.225 3.00076 -13.0647 7.36706e-05 1 
777 1 63.6572 42.6438 -2.75962 5.7297 5 
779 1 68.4474 42.7791 -14.7494 0.000123556 1 
780 1 18.9092 0.147513 -11.6089 0.000605432 1 
781 1 66.0818 42.6853 -8.79967 0.00368384 1 
782 1 16.3968 0.59557 -8.46881 0.00294563 1 
783 1 16.5317 0.0341779 -5.65075 0.0398712 1 
784 1 13.9041 1.03896 -5.28507 0.0992367 1 
785 1 14.1104 0.537775 -2.25054 3.09421 5 
786 1 59.0038 42.4947 -4.05255 0.117679 1 
787 1 11.5303 1.53773 -2.29623 0.440003 1 
788 1 56.6607 42.9646 -1.03381 8.66522 5 
797 1 18.7614 0.693586 -14.4187 0.00011633 1 
799 1 16.102 1.69525 -14.0888 0.000109544 1 
800 1 16.251 1.14741 -11.2801 0.000558485 1 
801 1 14.109 0.0652622 -12.8322 0.000269254 1 
802 1 61.2892 42.5994 -10.0131 0.00161891 1 
803 1 13.5952 2.15281 -10.948 0.00090415 1 
804 1 13.75 1.59985 -8.12777 0.00786336 1 
805 1 11.6092 0.523725 -9.69787 0.000623971 1 
806 1 58.8012 43.0517 -6.88564 0.00639052 1 
807 1 11.101 2.61416 -7.82458 0.00353706 1 
808 1 11.2838 2.06628 -5.0405 0.032326 1 
809 1 9.12241 0.977207 -6.57121 0.00568867 1 
810 1 9.33258 0.423536 -3.78342 0.0531714 1 
811 1 8.63675 3.05888 -4.677 0.0116447 1 
812 1 8.86743 2.48928 -1.86646 0.132106 1 
813 1 6.70711 1.39394 -3.39254 0.116641 1 
814 1 7.09853 0.768687 -0.4797 0.987415 1 
815 1 6.24997 3.3684 -1.42624 0.238412 1 
816 1 4.39723 1.47382 -0.350725 6.99259 5 
842 1 13.4426 2.69986 -13.7579 0.000119379 1 
844 1 11.451 1.0717 -12.507 0.000131505 1 
845 1 10.7822 3.70561 -13.4276 7.92141e-05 1 
846 1 10.9378 3.1614 -10.6237 0.000462706 1 
847 1 8.78979 2.07817 -12.1779 0.000133085 1 
848 1 8.94994 1.53178 -9.37346 0.00067559 1 
849 1 8.27714 4.16554 -10.2873 0.000328009 1 
850 1 8.44434 3.61557 -7.4823 0.00204578 1 
851 1 6.2882 2.5374 -9.03611 0.00147456 1 
852 1 6.46911 1.97781 -6.22258 0.013648 1 
853 1 5.78425 4.60744 -7.13262 0.0077284 1 
854 1 5.98689 4.01784 -4.30156 0.050637 1 
855 1 3.79378 2.97647 -5.91344 0.0545189 1 
856 1 4.03897 2.3269 -3.14063 0.616892 1 
857 1 114.227 4.96649 -4.04035 0.411753 1 
858 1 114.516 4.16351 -1.25295 6.67601 5 
859 1 112.184 3.64336 -2.66294 1.07396 5 
860 1 111.44 6.06547 -0.645122 6.17331 5 
901 1 8.63558 2.62092 -14.9835 3.06508e-05 1 
903 1 8.11992 4.70959 -13.0932 6.14983e-05 1 
904 1 5.97242 3.62458 -14.6497 2.70606e-05 1 
905 1 6.12657 3.08305 -11.8433 0.000168055 1 
906 1 116.37 5.71169 -12.7573 0.000112613 1 
907 1 116.527 5.16607 -9.94784 0.000972493 1 
908 1 114.374 4.08614 -11.5096 0.000260479 1 
909 1 114.532 3.54233 -8.70644 0.00373497 1 
910 1 113.857 6.16818 -9.62035 0.00185253 1 
911 1 114.021 5.60457 -6.82215 0.0319503 1 
912 1 111.856 4.55882 -8.36286 0.00527094 1 
913 1 112.01 4.05473 -5.5343 0.0822915 1 
914 1 111.325 6.6633 -6.46848 0.0452003 1 
915 1 111.473 6.23004 -3.60849 0.691229 5 
973 1 114.222 4.62672 -14.3158 2.87437e-05 1 
975 1 113.704 6.71328 -12.4255 0.000120237 1 
976 1 111.556 5.62784 -13.9829 4.1777e-05 1 
977 1 111.706 5.08969 -11.175 0.000356579 1 
978 1 111.035 7.71585 -12.0956 0.000176988 1 
979 1 111.182 7.17999 -9.28773 0.00251495 1 
23885 1 107.286 41.9168 -9.69104 0.00252761 1 
1052 1 110.888 8.25624 -14.9014 2.7582e-05 1 
1477 1 75.7796 42.3588 -3.41008 3.60934 5 
1478 1 74.1717 42.3306 -0.359165 6.55111 5 
1480 1 78.0502 42.9465 -12.2886 0.000711585 1 
1481 1 78.1947 42.3998 -9.45862 0.00332555 1 
1482 1 28.5153 0.3312 -9.12386 0.00375698 1 
1483 1 75.6933 42.8747 -6.27957 0.0373367 1 
1484 1 26.0043 0.80311 -5.98063 0.0269771 1 
1485 1 26.1707 0.267761 -3.15491 2.58498 5 
1486 1 23.4894 1.31095 -2.81309 2.20547 5 
1487 1 68.5596 42.9099 -1.54515 1.76886 5 
1496 1 28.2198 1.40964 -14.7717 0.000160008 1 
1497 1 28.3668 0.869929 -11.9526 0.000737842 1 
1498 1 73.2506 42.871 -13.5241 0.000352348 1 
1499 1 73.3963 42.338 -10.713 0.00191367 1 
1500 1 25.71 1.87177 -11.6212 0.000549016 1 
1501 1 25.8578 1.3344 -8.80005 0.00325613 1 
1502 1 23.7105 0.247228 -10.3676 0.00286305 1 
1503 1 70.8787 42.7968 -7.52787 0.027129 1 
1504 1 23.2055 2.32737 -8.47333 0.00171411 1 
1505 1 23.3536 1.79302 -5.64329 0.0113647 1 
1506 1 21.2016 0.703126 -7.23183 0.00271828 1 
1507 1 21.3439 0.189768 -4.41494 0.0392699 1 
1508 1 20.6924 2.806 -5.36705 0.011501 1 
1509 1 20.8108 2.32182 -2.56531 0.221821 1 
1510 1 18.6572 1.1811 -4.19561 0.147201 1 
1511 1 18.7458 0.73914 -1.5019 7.56993 5 
1512 1 18.1716 3.31198 -2.4522 6.59087 5 
1536 1 25.5618 2.41129 -14.4383 0.000136294 1 
1538 1 23.5646 0.784691 -13.1875 0.000390584 1 
1539 1 22.9039 3.41124 -14.1085 0.000118976 1 
1540 1 23.0545 2.86929 -11.2936 0.000422603 1 
1541 1 20.9071 1.7816 -12.8598 0.000204954 1 
1542 1 21.0556 1.23942 -10.0478 0.000770917 1 
1543 1 20.3969 3.86993 -10.9776 0.000404633 1 
1544 1 20.5489 3.32927 -8.17326 0.00185471 1 
1545 1 18.3963 2.23507 -9.73731 0.00275891 1 
1546 1 18.5386 1.69244 -6.95032 0.0209252 1 
1547 1 17.8839 4.33234 -7.88591 0.0150139 1 
1548 1 18.0248 3.80745 -5.14827 0.11367 1 
1549 1 15.8772 2.68899 -6.60567 0.0126369 1 
1550 1 16.0161 2.14401 -3.81589 6.92544 5 
1551 1 15.364 4.82517 -4.76111 0.074099 1 
1552 1 15.5239 4.2042 -1.97757 13.7683 5 
1553 1 13.4253 3.17537 -3.46708 0.189555 1 
35515 2 108.766 26.5033 -0.780305 6.4438 5 
1555 1 12.9248 5.37868 -1.53309 5.86187 5 
1556 1 10.9441 3.67475 -0.504754 1.64918 5 
1596 1 20.2448 4.4126 -13.7838 0.00010115 1 
1598 1 18.2476 2.78131 -12.5367 0.000393533 1 
1599 1 17.5834 5.41614 -13.4585 0.000230631 1 
1600 1 17.7348 4.87363 -10.6627 0.00177459 1 
1601 1 15.5868 3.78519 -12.207 0.000323565 1 
1602 1 15.7348 3.23838 -9.40598 0.00217166 1 
1603 1 15.0725 5.88237 -10.3269 0.00108956 1 
1604 1 15.2211 5.34722 -7.53788 0.00925728 1 
1605 1 13.0823 4.24942 -9.07165 0.0022906 1 
1606 1 13.2435 3.71007 -6.27239 0.0141331 1 
1607 1 12.5766 6.36026 -7.17995 0.00386856 1 
1608 1 12.7502 5.84036 -4.37506 0.0297344 1 
1609 1 10.6 4.71531 -5.94931 0.0101546 1 
1610 1 10.8032 4.18606 -3.19274 0.109982 1 
1611 1 10.1085 6.83026 -4.08364 0.0750674 1 
1612 1 10.2524 6.33047 -1.38621 0.71705 1 
1613 1 8.13829 5.11311 -2.76273 0.0627463 1 
23844 1 95.5045 40.9721 -3.28311 0.17783 1 
1672 1 14.9213 6.42152 -13.1256 0.0001528 1 
1673 1 12.7756 5.33394 -14.6781 5.01946e-05 1 
1674 1 12.9278 4.79188 -11.8735 0.000306106 1 
1675 1 12.2599 7.42593 -12.7887 8.99446e-05 1 
1676 1 12.415 6.88934 -9.98384 0.000551152 1 
1677 1 10.2677 5.79634 -11.5388 0.000172328 1 
1678 1 10.428 5.25506 -8.73796 0.00121102 1 
1679 1 9.7537 7.88729 -9.64913 0.000840855 1 
1680 1 9.92073 7.35148 -6.853 0.00795124 1 
1681 1 7.7658 6.24786 -8.39254 0.00130078 1 
1682 1 7.94318 5.6905 -5.58202 0.00841788 1 
1683 1 118.164 8.32097 -6.50046 0.00612578 1 
1684 1 118.343 7.74904 -3.68948 0.0381436 1 
1685 1 116.196 6.64978 -5.21851 0.0368033 1 
1686 1 116.414 6.01263 -2.35595 0.187581 1 
1687 1 115.691 8.65909 -3.28311 0.17783 1 
1688 1 115.991 8.02802 -0.392205 2.46445 5 
1689 1 113.764 6.84668 -2.17119 2.82636 5 
1690 1 113.248 8.68158 -0.370442 6.64565 2 
1764 1 10.1137 6.33754 -14.3439 3.26189e-05 1 
1766 1 9.59693 8.42676 -12.4533 0.000106696 1 
1767 1 118.364 7.33914 -14.0084 3.56208e-05 1 
1768 1 7.60421 6.79594 -11.2007 0.000205473 1 
1769 1 117.845 9.42474 -12.1167 0.000139008 1 
1770 1 118 8.87758 -9.30849 0.000917115 1 
1771 1 115.852 7.79463 -10.863 0.000682897 1 
1772 1 116.014 7.23722 -8.04789 0.00563181 1 
1773 1 115.332 9.8698 -8.96514 0.00447969 1 
1774 1 115.499 9.28784 -6.13889 0.0313748 1 
1775 1 113.338 8.23686 -7.73746 0.0170213 1 
1776 1 113.519 7.61408 -4.95396 0.254227 1 
1777 1 112.824 10.2678 -5.86583 0.137633 1 
1778 1 113.037 9.52567 -3.09243 1.72891 5 
1779 1 110.78 8.80791 -4.56925 0.351144 1 
1780 1 110.77 8.5447 -1.66121 5.90343 5 
23884 1 109.794 41.4483 -12.8191 0.000153738 1 
1863 1 117.694 9.96776 -14.9252 2.38874e-05 1 
1865 1 115.699 8.34015 -13.6733 8.2044e-05 1 
1866 1 115.029 10.969 -14.5903 7.15546e-05 1 
1867 1 115.179 10.4242 -11.7798 0.00053351 1 
1868 1 113.034 9.34199 -13.3424 6.64154e-05 1 
1869 1 113.184 8.79681 -10.5369 0.000818079 1 
1870 1 112.512 11.4282 -11.4521 0.000405765 1 
1871 1 112.661 10.8739 -8.65043 0.00728658 1 
1958 1 112.365 11.9719 -14.2587 7.63924e-05 1 
2419 1 85.0808 42.5976 -1.60678 5.84735 5 
2420 1 90.1808 42.6581 -13.0145 0.000113653 1 
2421 1 40.6246 0.0445101 -9.89913 0.00258459 1 
2422 1 87.7824 42.6243 -7.1123 0.012715 1 
2423 1 38.0546 0.538534 -6.85569 0.193894 1 
2424 1 38.1525 0.0995302 -4.19121 6.8911 5 
2425 1 35.4597 0.391997 -2.68825 10.3578 5 
2426 1 36.8322 1.47143 -0.0729206 3.62054 5 
2427 1 80.3853 41.9042 -1.93811 3.146 5 
2428 1 33.3086 1.4109 -0.642387 7.86118 5 
2436 1 40.4852 0.576638 -12.6909 0.000476199 1 
2437 1 85.3675 42.5692 -14.242 0.000490014 1 
2438 1 37.8147 1.57527 -12.3635 0.00281671 1 
2439 1 37.9452 1.03986 -9.5896 0.0244534 1 
2440 1 82.8351 43.0195 -11.0926 0.00327452 1 
2441 1 82.9595 42.4588 -8.27969 0.0330174 1 
2442 1 35.2784 2.01677 -9.20055 0.0169264 1 
2443 1 35.4146 1.47358 -6.39355 6.92161 5 
2444 1 33.2936 0.365586 -7.88022 0.0447669 1 
2445 1 80.5328 42.8825 -4.92186 1.27546 5 
2446 1 32.7978 2.45325 -6.0147 0.0468441 1 
2447 1 33.0358 1.94723 -3.25292 2.34912 5 
2448 1 30.8376 0.815519 -4.70796 0.101061 1 
2449 1 31.0328 0.282457 -1.92819 5.92029 5 
2450 1 30.3302 2.91706 -2.79286 0.217938 1 
2451 1 28.5 1.29706 -1.4157 1.70725 5 
2473 1 35.6741 0.484249 -13.8994 0.000565724 1 
2474 1 35.0127 3.11677 -14.8143 0.00031569 1 
2475 1 35.1486 2.56975 -12.0091 0.00220298 1 
2476 1 33.0151 1.485 -13.5497 0.000743236 1 
2477 1 33.1544 0.932884 -10.7242 0.00448115 1 
2478 1 32.4946 3.56888 -11.6547 0.001095 1 
2479 1 32.6346 3.01532 -8.83431 0.00525146 1 
2480 1 30.5042 1.94315 -10.3824 0.00121442 1 
2481 1 30.6555 1.3899 -7.54392 0.00589504 1 
2482 1 29.9889 4.02232 -8.47402 0.00289111 1 
2483 1 30.1503 3.46563 -5.62705 0.0192188 1 
2484 1 28.0093 2.40697 -7.20249 0.00576002 1 
2485 1 28.1778 1.86218 -4.35325 0.071286 1 
2486 1 27.5072 4.47866 -5.2684 0.0310806 1 
2487 1 27.6689 3.86539 -2.36638 0.177654 1 
2488 1 25.5231 2.86065 -4.07257 0.105983 1 
2489 1 25.7023 2.07164 -1.22694 5.03035 5 
2490 1 25.015 4.81183 -2.16591 0.366417 1 
2491 1 22.8288 3.42085 -0.961026 6.71166 5 
2529 1 32.3545 4.11699 -14.4697 0.000216875 1 
2531 1 30.3596 2.48981 -13.2083 0.000333408 1 
2532 1 29.6987 5.11875 -14.1288 0.000165702 1 
2533 1 29.8437 4.57211 -11.3069 0.000634889 1 
2534 1 27.705 3.49383 -12.871 0.000331977 1 
2535 1 27.8539 2.95094 -10.0433 0.00132071 1 
2536 1 27.1936 5.57514 -10.9695 0.00101239 1 
2537 1 27.3468 5.02915 -8.1289 0.00494583 1 
2538 1 25.2028 3.95326 -9.71998 0.000831913 1 
2539 1 25.3584 3.41188 -6.89313 0.00396165 1 
2540 1 24.7006 6.03209 -7.82331 0.00192153 1 
2541 1 24.8601 5.47461 -4.99142 0.0238274 1 
2542 1 22.705 4.41037 -6.59263 0.0037651 1 
2543 1 22.8431 3.88831 -3.77354 0.0660889 1 
2544 1 22.2084 6.47569 -4.7001 0.0296469 1 
2545 1 22.2675 5.97356 -1.81937 6.78259 5 
2546 1 20.1814 4.92091 -3.48092 0.119776 1 
2547 1 20.2196 4.45942 -0.596861 5.9867 5 
2548 1 19.7371 7.02015 -1.42209 6.07103 5 
2549 1 17.5084 5.35111 -0.640134 8.8865 5 
2605 1 27.0433 6.12093 -13.7941 0.000222278 1 
2607 1 25.05 4.49569 -12.5422 0.000256392 1 
2608 1 24.387 7.12397 -13.4676 0.000131737 1 
2609 1 24.5416 6.57857 -10.6497 0.000463556 1 
2610 1 22.3933 5.49781 -12.2203 0.00018733 1 
2611 1 22.549 4.9546 -9.40714 0.000606197 1 
2612 1 21.8856 7.58476 -10.335 0.00043242 1 
2613 1 22.0482 7.03827 -7.52078 0.00205195 1 
2614 1 19.8907 5.9634 -9.10115 0.00167301 1 
2615 1 20.0489 5.42731 -6.3051 0.0129424 1 
2616 1 19.3921 8.0556 -7.21266 0.00825988 1 
2617 1 19.5566 7.50417 -4.4022 0.0884557 1 
2618 1 17.3762 6.43703 -6.03929 0.0630863 1 
2619 1 17.5275 5.89913 -3.32706 0.544613 1 
2620 1 16.8881 8.50455 -4.17406 0.330414 1 
2621 1 17.0779 7.88092 -1.48827 8.32698 5 
2622 1 14.883 6.92193 -2.74091 1.71795 5 
2623 1 14.5547 9.31824 -0.756214 3.515 5 
2696 1 21.7283 8.12879 -13.1445 0.000109913 1 
2697 1 19.5799 7.04463 -14.705 6.41942e-05 1 
2698 1 19.7335 6.50311 -11.9012 0.000293365 1 
2699 1 19.0666 9.13528 -12.8191 0.000153738 1 
2700 1 19.225 8.59516 -10.0168 0.00093273 1 
2701 1 17.0702 7.50989 -11.5768 0.000781184 1 
2702 1 17.2256 6.97318 -8.79166 0.00726132 1 
2703 1 16.5581 9.60369 -9.69104 0.00252761 1 
2704 1 16.7193 9.06508 -6.91126 0.0322928 1 
2705 1 14.5602 7.98415 -8.42977 0.00343869 1 
2706 1 14.7121 7.46007 -5.60825 0.050115 1 
2707 1 14.051 10.0877 -6.52025 0.0203015 1 
2708 1 14.2446 9.59283 -3.66991 0.265662 1 
2709 1 12.0788 8.48311 -5.27309 0.0200353 1 
2710 1 12.2871 8.01892 -2.4467 0.17643 1 
2711 1 122.49 10.6341 -3.39322 0.0475013 1 
2712 1 11.7983 10.2353 -0.60736 0.555876 1 
2713 1 120.49 8.96879 -2.28352 0.34534 1 
2714 1 119.956 11.1336 -0.566844 7.1617 5 
2798 1 16.9173 8.04928 -14.3756 0.000106092 1 
2800 1 16.4023 10.141 -12.4878 0.000240124 1 
2801 1 14.2542 9.05339 -14.0401 4.33773e-05 1 
2802 1 14.4063 8.51628 -11.2355 0.000278138 1 
2803 1 13.7377 11.1448 -12.1484 0.000131838 1 
2804 1 13.8918 10.6116 -9.33923 0.00145704 1 
2805 1 11.7443 9.51951 -10.8966 0.000356881 1 
2806 1 11.9038 8.99171 -8.08792 0.00279093 1 
2807 1 122.141 11.6168 -9.00592 0.00178581 1 
2808 1 122.306 11.1066 -6.19823 0.0110739 1 
2809 1 120.151 9.97942 -7.76754 0.00561035 1 
2810 1 120.32 9.45705 -4.99494 0.047266 1 
2811 1 119.623 12.0826 -5.91225 0.0371187 1 
2812 1 119.782 11.5944 -3.19485 0.254711 1 
2813 1 117.635 10.3863 -4.61615 0.0319187 1 
2814 1 117.832 9.83871 -1.79246 2.52523 5 
2815 1 117.118 12.4798 -2.71744 5.4743 5 
2816 1 115.27 10.681 -1.31515 2.3199 5 
2902 1 13.5863 11.6826 -14.9555 2.05713e-05 1 
2904 1 11.591 10.0556 -13.704 5.16785e-05 1 
2905 1 121.836 12.6834 -14.6213 3.21427e-05 1 
2906 1 121.986 12.1461 -11.8137 0.000225277 1 
2907 1 119.84 11.0549 -13.3701 7.82318e-05 1 
2908 1 119.992 10.5153 -10.5649 0.000620851 1 
2909 1 119.318 13.1421 -11.4837 0.000522636 1 
2910 1 119.468 12.6057 -8.68618 0.00450471 1 
2911 1 117.322 11.5073 -10.2266 0.000768082 1 
2912 1 117.474 10.9535 -7.42057 0.00521419 1 
2913 1 116.788 13.5866 -8.33937 0.0048004 1 
2914 1 116.932 13.0242 -5.5366 0.0303489 1 
2915 1 114.806 11.9315 -7.05535 0.0273178 1 
2916 1 114.981 11.3102 -4.20384 0.17148 1 
2917 1 114.274 13.9704 -5.11614 0.156349 1 
2918 1 114.559 13.3411 -2.23239 2.15379 5 
2919 1 112.329 12.2113 -4.00176 1.03184 1 
2920 1 112.545 11.3512 -1.27016 7.35611 5 
2921 1 111.846 14.0374 -2.16425 7.34201 5 
3008 1 119.17 13.6825 -14.2887 7.05974e-05 1 
3010 1 117.173 12.0532 -13.0345 0.000118623 1 
3011 1 116.503 14.6816 -13.9531 0.000125055 1 
3012 1 116.646 14.137 -11.1447 0.000754388 1 
3013 1 114.507 13.0543 -12.6965 0.000475199 1 
3014 1 114.654 12.5038 -9.88138 0.00360903 1 
3015 1 113.981 15.137 -10.7959 0.00294046 1 
3016 1 114.121 14.5749 -7.96845 0.020657 1 
3017 1 111.989 13.5125 -9.55783 0.00277024 1 
3018 1 112.137 12.9294 -6.76396 0.0580749 1 
3019 1 111.46 15.5882 -7.65157 0.0195447 1 
3020 1 111.622 14.9204 -4.87783 0.451411 1 
3108 1 113.838 15.6837 -13.6135 0.000415038 1 
3110 1 111.843 14.0602 -12.365 0.000421227 1 
3111 1 111.177 16.6903 -13.2779 0.000419513 1 
3112 1 111.321 16.1478 -10.4628 0.00194139 1 
3609 1 102.319 42.3686 -13.704 5.16784e-05 1 
3610 1 99.8058 42.8284 -10.5649 0.000620852 1 
3611 1 50.2601 0.182526 -7.42057 0.00521419 1 
3612 1 97.4489 42.6993 -4.61615 0.0319187 1 
3613 1 47.7673 0.539151 -4.20384 0.17148 1 
3614 1 95.0842 42.9941 -1.31515 2.3199 5 
3615 1 45.3314 0.580221 -1.27016 7.35611 5 
3622 1 52.626 0.283885 -13.3701 7.82319e-05 1 
3623 1 49.9591 1.28222 -13.0345 0.000118623 1 
3624 1 50.1077 0.736236 -10.2266 0.000768082 1 
3625 1 94.9923 42.7373 -11.7798 0.00053351 1 
3626 1 47.4401 1.73281 -9.88138 0.00360904 1 
3627 1 47.5926 1.16044 -7.05535 0.0273178 1 
3628 1 45.4476 0.102831 -8.65043 0.00728658 1 
3629 1 92.6379 42.5809 -5.86583 0.137633 1 
3630 1 44.9234 2.15836 -6.76396 0.0580749 1 
3631 1 45.1149 1.44032 -4.00176 1.03184 1 
3632 1 42.8953 0.628638 -5.50403 0.170995 1 
3633 1 42.9219 0.280838 -2.62542 2.32104 5 
3634 1 42.2848 2.82738 -3.54649 1.54338 5 
3635 1 41.8671 2.63975 -0.575739 6.38798 5 
3636 1 40.2445 1.2052 -2.43534 1.05987 1 
3637 1 39.1209 3.30728 -0.61944 6.54443 5 
3657 1 47.8157 0.19795 -14.5903 7.15548e-05 1 
3659 1 47.2933 2.28329 -12.6965 0.0004752 1 
3660 1 45.1512 1.20088 -14.2587 7.63927e-05 1 
3661 1 45.2985 0.657209 -11.4521 0.000405765 1 
3662 1 44.6297 3.28916 -12.365 0.000421228 1 
3663 1 44.7749 2.74144 -9.55783 0.00277024 1 
3664 1 42.6315 1.66536 -11.1284 0.000550802 1 
3665 1 42.7717 1.1275 -8.32756 0.00749047 1 
3666 1 42.1092 3.75887 -9.23767 0.00274425 1 
3667 1 42.2373 3.22481 -6.43096 0.071966 1 
3668 1 40.0951 2.15432 -8.03035 0.00861741 1 
3669 1 40.2279 1.67285 -5.239 0.0808533 1 
3670 1 39.5609 4.26997 -6.16176 0.0450758 1 
3671 1 39.6246 3.79674 -3.32904 0.899541 1 
3672 1 37.543 2.70606 -5.09136 6.40396 5 
3673 1 37.513 2.16461 -2.5071 7.22548 5 
3674 1 36.8855 4.74407 -3.10073 6.30518 5 
3675 1 35.0987 3.30344 -1.49325 7.55807 5 
3713 1 42.4867 2.20503 -13.9301 0.000143363 1 
3714 1 41.8215 4.83584 -14.8434 0.000153373 1 
3715 1 41.9668 4.29785 -12.039 0.000655858 1 
3716 1 39.8211 3.20871 -13.604 0.000443833 1 
3717 1 39.9621 2.67414 -10.8134 0.00177056 1 
3718 1 39.3016 5.30676 -11.719 0.00188769 1 
3719 1 39.4423 4.78311 -8.93901 0.00901031 1 
3720 1 37.2877 3.67642 -10.4955 0.0155205 1 
3721 1 37.4142 3.17157 -7.76568 0.13266 1 
3722 1 36.7601 5.7891 -8.61154 0.0243549 1 
3723 1 36.8506 5.28464 -5.86297 0.168729 1 
3724 1 34.7549 4.12342 -7.3238 0.0265555 1 
3725 1 34.9221 3.52459 -4.47901 5.9333 5 
3726 1 34.2153 6.19498 -5.39768 0.135342 1 
3727 1 34.356 5.8459 -2.47838 5.91198 5 
3728 1 32.2811 4.58958 -4.14334 0.116067 1 
3729 1 32.3881 4.09861 -1.42448 1.71986 5 
3730 1 31.6783 6.73898 -2.31776 0.811622 1 
29289 2 74.8546 17.9701 -0.846707 2.45244 5 
3784 1 39.1582 5.84003 -14.5136 0.000366358 1 
3786 1 37.1541 4.20962 -13.2718 0.00164366 1 
3787 1 36.495 6.84087 -14.1769 0.000519233 1 
3788 1 36.6336 6.30854 -11.383 0.00378007 1 
3789 1 34.4926 5.20586 -12.9223 0.000649377 1 
3790 1 34.6267 4.66143 -10.1212 0.00383404 1 
3791 1 33.9761 7.29656 -11.0238 0.00103618 1 
3792 1 34.1062 6.75619 -8.21487 0.00525814 1 
3793 1 31.9775 5.6549 -9.75753 0.00118407 1 
3794 1 32.1122 5.10382 -6.94067 0.00946017 1 
3795 1 31.4636 7.74326 -7.86316 0.00476361 1 
3796 1 31.6009 7.22434 -5.05635 0.053313 1 
3797 1 29.4745 6.1039 -6.56211 0.00871093 1 
3798 1 29.6063 5.54972 -3.70731 0.0688033 1 
3799 1 28.9422 8.18957 -4.65504 0.0393704 1 
3800 1 29.0741 7.65928 -1.76017 5.71191 5 
3801 1 26.9844 6.53036 -3.31753 0.106942 1 
3802 1 27.1789 5.8998 -0.408153 2.71568 5 
3803 1 26.5412 8.62769 -1.34021 3.53061 5 
3804 1 24.4402 6.76244 -0.361661 10.225 5 
3874 1 33.836 7.83719 -13.8331 0.000213678 1 
3876 1 31.8378 6.20268 -12.5739 0.000335531 1 
3877 1 31.1796 8.83357 -13.4948 0.000207978 1 
3878 1 31.3241 8.28769 -10.68 0.000878503 1 
3879 1 29.1844 7.20173 -12.2331 0.000370985 1 
3880 1 29.3303 6.65235 -9.40615 0.00156595 1 
3881 1 28.6705 9.2832 -10.3438 0.000935944 1 
3882 1 28.8146 8.7295 -7.51473 0.0063211 1 
3883 1 26.6839 7.65338 -9.07041 0.00320887 1 
3884 1 26.8375 7.10536 -6.21157 0.0189054 1 
3885 1 26.1715 9.7291 -7.17754 0.0121537 1 
3886 1 26.3229 9.18524 -4.2869 0.106721 1 
3887 1 24.1988 8.10361 -5.93246 0.00942228 1 
3888 1 24.3746 7.50091 -3.10849 0.153832 1 
3889 1 23.7332 10.1816 -4.05255 0.117679 1 
3890 1 23.854 9.48865 -1.27187 6.21695 5 
3891 1 21.7249 8.53027 -2.83892 4.55821 5 
3892 1 21.3901 10.6515 -1.03381 8.66522 5 
3976 1 28.5227 9.83281 -13.1619 0.000213572 1 
3977 1 26.3798 8.75067 -14.7196 0.000115745 1 
3978 1 26.531 8.20378 -11.9011 0.000564454 1 
3979 1 25.8659 10.8363 -12.8322 0.000269254 1 
3980 1 26.0186 10.2863 -10.0131 0.00161891 1 
3981 1 23.876 9.20914 -11.5804 0.000238482 1 
3982 1 24.035 8.65919 -8.76259 0.000955511 1 
3983 1 23.3661 11.2947 -9.69787 0.000623972 1 
3984 1 23.5306 10.7386 -6.88564 0.00639053 1 
3985 1 21.3803 9.66823 -8.44995 0.00124722 1 
3986 1 21.5607 9.11108 -5.63088 0.00888134 1 
3987 1 20.8793 11.7482 -6.57121 0.00568867 1 
3988 1 21.0894 11.1946 -3.78342 0.0531714 1 
3989 1 18.9076 10.1201 -5.29526 0.0524087 1 
3990 1 19.1457 9.53626 -2.41938 1.23623 5 
3991 1 18.464 12.165 -3.39254 0.116641 1 
3992 1 18.8554 11.5397 -0.479699 0.987416 1 
3993 1 16.5487 10.4882 -2.27552 1.28484 5 
3994 1 16.1541 12.2448 -0.350725 6.99259 5 
4080 1 23.7213 9.75496 -14.3927 6.43435e-05 1 
4082 1 23.2079 11.8427 -12.507 0.000131505 1 
4083 1 21.0607 10.7605 -14.0655 6.22855e-05 1 
4084 1 21.2171 10.2167 -11.2589 0.000247923 1 
4085 1 20.5467 12.8492 -12.1779 0.000133085 1 
4086 1 20.7068 12.3028 -9.37346 0.00067559 1 
4087 1 18.5544 11.2246 -10.9299 0.000346321 1 
4088 1 18.72 10.6794 -8.12209 0.00391351 1 
4089 1 18.0451 13.3084 -9.03611 0.00147456 1 
4090 1 18.226 12.7488 -6.22258 0.013648 1 
4091 1 16.0496 11.6888 -7.8009 0.0088318 1 
4092 1 16.2337 11.124 -5.02331 0.116281 1 
4093 1 15.5506 13.7475 -5.91344 0.0545189 1 
4094 1 15.7958 13.0979 -3.14063 0.616893 1 
4095 1 13.5463 12.2131 -4.60664 0.128637 1 
4096 1 13.7603 11.8256 -1.73076 1.49119 5 
4097 1 123.941 14.4144 -2.66294 1.07396 5 
4098 1 121.981 12.8307 -1.52877 0.470293 1 
4184 1 20.3924 13.3919 -14.9835 3.06509e-05 1 
4186 1 18.398 11.7659 -13.7346 5.79181e-05 1 
4187 1 17.7293 14.3956 -14.6497 2.70607e-05 1 
4188 1 17.8834 13.8541 -11.8433 0.000168056 1 
4189 1 15.7336 12.7697 -13.4007 6.83663e-05 1 
4190 1 15.888 12.2307 -10.5974 0.000665767 1 
4191 1 126.131 14.8572 -11.5096 0.000260479 1 
4192 1 126.289 14.3133 -8.70644 0.00373497 1 
4193 1 124.134 13.2363 -10.2555 0.000713162 1 
4194 1 124.29 12.7106 -7.44011 0.0098117 1 
4195 1 123.613 15.3298 -8.36286 0.00527095 1 
4196 1 123.767 14.8257 -5.5343 0.0822915 1 
4197 1 121.619 13.726 -7.12239 0.00821327 1 
4198 1 121.783 13.2494 -4.3201 0.0367446 1 
4199 1 121.084 15.8607 -5.25016 0.0282026 1 
4200 1 121.26 15.4303 -2.45701 0.353361 1 
4201 1 119.072 14.2185 -4.11093 0.222321 1 
4202 1 119.234 13.7583 -1.47437 6.86504 5 
4203 1 118.518 16.3791 -2.38795 6.58451 5 
42497 2 98.3683 39.5121 -0.846707 2.45244 5 
4291 1 125.979 15.3977 -14.3158 2.87437e-05 1 
4293 1 123.982 13.7718 -13.0647 7.36708e-05 1 
4294 1 123.313 16.3989 -13.9829 4.17771e-05 1 
4295 1 123.462 15.8607 -11.175 0.00035658 1 
4296 1 121.315 14.772 -12.7332 0.0001435 1 
4297 1 121.465 14.2398 -9.92714 0.00119935 1 
4298 1 120.792 16.8631 -10.8501 0.000791071 1 
4299 1 120.937 16.3437 -8.04906 0.00580995 1 
4300 1 118.788 15.2313 -9.60675 0.0040661 1 
4301 1 118.93 14.7072 -6.83189 0.0323299 1 
4302 1 118.245 17.3313 -7.75254 0.0316753 1 
4303 1 118.367 16.8421 -5.03023 0.205865 1 
4304 1 116.236 15.6622 -6.45319 0.0291646 1 
4305 1 116.399 15.123 -3.6383 2.41523 5 
4306 1 115.69 17.7632 -4.54323 2.19041 5 
4307 1 115.769 16.4489 -1.01891 8.21235 5 
4308 1 113.822 16.0122 -3.13619 1.80705 5 
4309 1 113.647 14.9389 -0.172887 0.818634 1 
4310 1 112.964 17.6573 -1.08339 0.909068 1 
4311 1 110.945 15.7444 -0.377346 5.98776 5 
23882 1 105.282 41.6313 -0.756214 3.515 5 
4399 1 120.646 17.3989 -13.6536 0.000112368 1 
4401 1 118.646 15.7688 -12.4039 0.00048705 1 
4402 1 117.977 18.3968 -13.324 0.000504708 1 
4403 1 118.116 17.8568 -10.5281 0.00371601 1 
4404 1 115.975 16.7652 -12.0639 0.000757422 1 
4405 1 116.109 16.2201 -9.25471 0.00483726 1 
4406 1 115.441 18.8455 -10.1744 0.0045943 1 
4407 1 115.557 18.3042 -7.35328 0.0321697 1 
4408 1 113.449 17.214 -8.87829 0.0143491 1 
4409 1 113.582 16.6308 -6.02493 0.101824 1 
4410 1 112.923 19.2812 -6.92915 0.0622867 1 
4411 1 113.085 18.6688 -4.02113 1.21583 5 
4412 1 110.936 17.6388 -5.72118 0.148319 1 
4413 1 111.048 16.7691 -3.02666 2.9394 5 
4499 1 115.835 17.3106 -14.8717 0.000144592 1 
4501 1 115.308 19.3949 -12.9825 0.00071559 1 
4502 1 113.172 18.3133 -14.5303 0.00034603 1 
4503 1 113.312 17.7665 -11.7124 0.0021577 1 
4504 1 112.648 20.3964 -12.63 0.00145822 1 
4505 1 112.785 19.8417 -9.79901 0.00863043 1 
4506 1 110.799 18.2301 -8.54228 0.00765425 1 
5037 1 111.945 42.5298 -11.2589 0.000247923 1 
5038 1 109.448 42.9925 -8.12209 0.00391351 1 
5039 1 109.635 42.4332 -5.29526 0.0524087 1 
5040 1 59.9337 0.352949 -5.02331 0.116281 1 
5041 1 107.276 42.8013 -2.27552 1.28484 5 
5042 1 57.4603 1.05455 -1.73076 1.49119 5 
5043 1 102.526 42.5484 -0.60736 0.555876 1 
5048 1 111.788 43.0736 -14.0655 6.22854e-05 1 
5049 1 62.098 0.99488 -13.7346 5.7918e-05 1 
5050 1 62.2544 0.453582 -10.9299 0.000346321 1 
5051 1 107.13 42.454 -12.4878 0.000240125 1 
5052 1 59.5881 1.45964 -10.5974 0.000665767 1 
5053 1 59.7497 0.917737 -7.8009 0.0088318 1 
5054 1 104.619 42.9246 -9.33923 0.00145704 1 
5055 1 104.779 42.4008 -6.52025 0.0203015 1 
5056 1 57.0766 1.93953 -7.44011 0.0098117 1 
5057 1 57.2463 1.44204 -4.60664 0.128637 1 
5058 1 55.0923 0.33555 -6.19823 0.0110739 1 
5059 1 102.304 42.9472 -3.39322 0.0475013 1 
5060 1 54.5695 2.47842 -4.3201 0.0367446 1 
5061 1 54.7671 2.05963 -1.52877 0.470293 1 
5062 1 52.5678 0.823374 -3.19485 0.254711 1 
5063 1 52.7419 0.362583 -0.566844 7.1617 5 
5064 1 52.0204 2.98724 -1.47437 6.86504 5 
5084 1 59.4337 1.99867 -13.4007 6.83663e-05 1 
5085 1 57.2864 0.91158 -14.9555 2.05713e-05 1 
5086 1 57.4377 0.373829 -12.1484 0.000131838 1 
5087 1 56.7684 3.00076 -13.0647 7.36707e-05 1 
5088 1 56.9204 2.4653 -10.2555 0.000713162 1 
5089 1 54.7727 1.37512 -11.8137 0.000225277 1 
5090 1 54.9274 0.845751 -9.00592 0.00178581 1 
5091 1 54.2511 3.46876 -9.92714 0.00119935 1 
5092 1 54.4054 2.95496 -7.12239 0.00821327 1 
5093 1 52.2539 1.83469 -8.68618 0.00450471 1 
5094 1 52.409 1.31155 -5.91225 0.0371187 1 
5095 1 51.7164 3.93618 -6.83189 0.0323299 1 
5096 1 51.858 3.44745 -4.11093 0.222321 1 
5097 1 49.7182 2.25322 -5.5366 0.0303489 1 
5098 1 49.9041 1.70881 -2.71744 5.4743 5 
5099 1 49.1853 4.35197 -3.6383 2.41522 5 
25401 2 130.311 17.9701 -0.846707 2.45244 5 
5101 1 47.3456 2.57012 -2.23239 2.15379 5 
5102 1 46.433 4.16788 -0.172887 0.818634 1 
5137 1 54.6221 1.91241 -14.6213 3.21427e-05 1 
5139 1 54.1017 4.00099 -12.7332 0.000143501 1 
5140 1 51.956 2.91144 -14.2887 7.05975e-05 1 
5141 1 52.1038 2.3711 -11.4837 0.000522637 1 
5142 1 51.432 4.99777 -12.4039 0.00048705 1 
5143 1 51.5745 4.46026 -9.60675 0.00406611 1 
5144 1 49.4323 3.36601 -11.1447 0.000754388 1 
5145 1 49.5741 2.81554 -8.33937 0.0048004 1 
5146 1 48.8949 5.44912 -9.25471 0.00483726 1 
5147 1 49.0226 4.89121 -6.45319 0.0291646 1 
5148 1 46.9076 3.80387 -7.96845 0.020657 1 
5149 1 47.0605 3.1994 -5.11614 0.156349 1 
5150 1 46.368 5.85979 -6.02493 0.101824 1 
5151 1 46.608 5.24121 -3.13619 1.80704 5 
5152 1 44.4084 4.14935 -4.87783 0.451411 1 
5153 1 44.6327 3.26641 -2.16425 7.34201 5 
5154 1 43.8339 5.99806 -3.02666 2.9394 5 
5155 1 43.7316 4.97336 -0.377346 5.98776 5 
5156 1 41.3109 5.17425 -1.44787 6.56786 5 
5208 1 49.289 3.91054 -13.9531 0.000125055 1 
5209 1 48.621 6.53958 -14.8717 0.000144592 1 
5210 1 48.7616 5.99418 -12.0639 0.000757422 1 
5211 1 46.6243 4.91272 -13.6135 0.000415039 1 
5212 1 46.7667 4.36601 -10.7959 0.00294046 1 
5213 1 46.0986 6.99546 -11.7124 0.0021577 1 
5214 1 46.2351 6.44294 -8.87829 0.0143491 1 
5215 1 44.1074 5.37676 -10.4628 0.00194139 1 
5216 1 44.2467 4.81722 -7.65157 0.0195447 1 
5217 1 43.5854 7.45906 -8.54228 0.00765425 1 
5218 1 43.7226 6.8678 -5.72118 0.148319 1 
5219 1 41.5833 5.84997 -7.33158 0.0192202 1 
5220 1 41.6208 5.34322 -4.50865 0.660491 1 
5221 1 41.0313 7.93917 -5.44514 0.16698 1 
5222 1 40.8137 7.49175 -2.65486 5.75419 5 
5223 1 38.9277 6.33696 -4.29781 0.259769 1 
5224 1 38.6544 5.8997 -1.48944 6.3832 5 
5225 1 38.199 8.44078 -2.40717 8.69456 5 
5226 1 36.9775 7.73328 0.00257078 7.58096 5 
5294 1 45.9578 7.54224 -14.5303 0.000346031 1 
5296 1 43.9633 5.91928 -13.2779 0.000419514 1 
5297 1 43.2986 8.54822 -14.1919 0.000314788 1 
5298 1 43.443 8.00577 -11.3728 0.00135594 1 
5299 1 41.3033 6.92792 -12.9479 0.000583675 1 
5300 1 41.4492 6.39268 -10.1396 0.00258585 1 
5301 1 40.7863 9.01897 -11.0443 0.00160996 1 
5302 1 40.9335 8.48569 -8.22923 0.0125909 1 
5303 1 38.7832 7.40736 -9.82379 0.00528577 1 
5304 1 38.9008 6.88137 -7.04958 0.0243634 1 
5305 1 38.2651 9.49745 -7.90556 0.0123447 1 
5306 1 38.376 8.96895 -5.12368 0.161399 1 
5307 1 36.2298 7.88059 -6.68238 0.0363466 1 
5308 1 36.2662 7.32647 -3.90418 6.67456 5 
5309 1 35.7611 9.95234 -4.65384 1.3192 5 
5310 1 36.1503 10.1597 -1.07273 7.4639 5 
5311 1 33.7208 8.39435 -3.44684 6.33311 5 
5312 1 34.1292 8.13522 -0.616715 3.6703 5 
5313 1 33.289 10.5968 -1.54515 1.76886 5 
5314 1 31.2637 8.9198 -0.580911 6.62028 5 
5397 1 40.6398 9.55494 -13.8581 0.000339111 1 
5399 1 38.6408 7.9342 -12.6188 0.000961327 1 
5400 1 37.9801 10.558 -13.5241 0.000352348 1 
5401 1 38.1257 10.025 -10.713 0.00191367 1 
5402 1 35.9789 8.93306 -12.2783 0.000996691 1 