ITEM: TIMESTEP
0
ITEM: NUMBER OF ATOMS
7524
ITEM: BOX BOUNDS xy xz yz pp pp ss
-1.4864729864700001e+02 9.5669195669000004e+01 -1.4864729864700001e+02
0.0000000000000000e+00 4.4159320702000002e+01 0.0000000000000000e+00
-1.0757441105999271e+02 1.1494451372926117e+02 0.0000000000000000e+00
ITEM: ATOMS id type x y z c_csym c_cna 
1 1 -0.527938 0.85912 -3.27917 0.275299 1 
2 1 -0.591156 4.751 -2.25362 5.8439 5 
3 1 -0.74631 8.5841 -0.847226 3.91816 5 
4 1 -1.69132 2.48596 -1.0278 3.50304 5 
5 1 -95.7359 30.5547 -3.8317 0.240173 1 
6 1 -95.9543 34.4604 -2.66216 0.528891 1 
7 1 -96.311 38.4652 -1.35965 3.75703 5 
8 1 -1.32906 2.39046 -8.75258 0.000771473 1 
9 1 -0.210069 4.84395 -9.72236 0.000193305 1 
10 1 -1.49528 6.28252 -7.60645 0.00218867 1 
11 1 -0.374438 8.73459 -8.56741 0.000594147 1 
12 1 -1.66298 10.1686 -6.43857 0.00710363 1 
13 1 -0.533039 12.6177 -7.38897 0.00378615 1 
14 1 -0.0966649 11.818 -4.67046 0.0302421 1 
15 1 -1.80921 14.0332 -5.26846 0.0257774 1 
16 1 -0.701182 16.4891 -6.22933 0.00383628 1 
17 1 -0.282724 15.7215 -3.49671 0.155034 1 
18 1 -1.98558 17.9368 -4.12424 0.0425466 1 
19 1 -0.874239 20.3526 -5.11146 0.0299349 1 
20 1 -0.465789 19.6754 -2.32695 7.52595 5 
21 1 -2.14104 21.7637 -2.9581 0.803149 5 
22 1 -1.07707 24.1772 -4.0305 0.204209 1 
23 1 -0.591238 23.3037 -1.09393 6.99497 5 
24 1 -2.35709 25.578 -2.00164 7.13537 5 
25 1 -1.15992 28.083 -2.68228 6.0337 5 
26 1 -98.0969 29.8033 -0.785715 12.1595 5 
27 1 -96.9221 32.0164 -1.87848 7.08591 5 
28 1 -0.900624 1.60602 -6.03393 0.0107759 1 
29 1 -3.74945 1.39988 -5.68781 0.0410669 1 
30 1 -2.61242 3.82691 -6.64999 0.00659504 1 
31 1 -2.1661 3.05127 -3.94379 0.162459 1 
32 1 -1.05898 5.49681 -4.92114 0.0287334 1 
33 1 -3.90154 5.28129 -4.57966 0.159611 1 
34 1 -2.78422 7.72073 -5.463 0.0339253 1 
35 1 -2.29537 6.93297 -2.7384 6.77013 5 
36 1 -1.21985 9.35997 -3.76387 0.157849 1 
37 1 -4.14029 9.1186 -3.34965 5.62546 5 
38 1 -2.97832 11.6092 -4.32636 0.192279 1 
39 1 -2.6052 10.7273 -1.78326 11.5324 5 
40 1 -1.34555 13.1716 -2.57868 1.21113 5 
41 1 -4.22811 13.0477 -1.94276 6.51329 5 
42 1 -3.1211 15.4624 -3.22486 0.449509 1 
43 1 -2.36893 14.7956 -0.707416 13.1498 5 
44 1 -1.49464 17.2466 -1.42516 3.3223 5 
45 1 -4.32799 16.7455 -1.05111 5.39799 5 
46 1 -3.37509 19.376 -2.03781 6.56174 5 
47 1 -3.45744 23.1297 -1.02004 6.91716 5 
48 1 92.318 0.687894 -3.05509 0.822642 1 
49 1 89.5383 0.395522 -2.53256 5.9205 5 
50 1 -5.06386 2.85061 -3.52767 0.164505 1 
51 1 -4.63626 1.99865 -0.699306 8.43828 5 
52 1 -3.45039 4.48846 -2.00196 7.90365 5 
53 1 -5.11456 6.68206 -2.35949 1.37626 5 
54 1 -3.46406 8.34426 -0.665675 8.88276 5 
55 1 -6.15462 8.40868 -0.553578 13.7821 5 
56 1 88.2528 1.7713 -0.425317 12.2201 5 
57 1 -0.118628 12.746 -14.9659 3.21504e-05 1 
58 1 -0.287181 16.623 -13.8139 8.50179e-05 1 
59 1 -0.457226 20.4987 -12.6663 0.00011253 1 
60 1 -0.628868 24.3773 -11.5188 0.000130519 1 
61 1 -0.799661 28.2549 -10.369 0.000184329 1 
62 1 -96.6421 32.1279 -9.23179 0.000671789 1 
63 1 -96.8269 35.9965 -8.11231 0.00476969 1 
64 1 -97.0169 39.8652 -7.00755 0.00922966 1 
65 1 -95.897 42.3372 -7.97164 0.00343491 1 
66 1 -97.2041 43.7772 -5.85357 0.0235838 1 
69 1 -0.471255 1.7451 -13.5845 2.32658e-05 1 
70 1 -2.18439 3.96208 -14.1768 3.87515e-05 1 
72 1 -0.638508 5.62997 -12.4343 3.23483e-05 1 
73 1 -2.35171 7.8457 -13.0252 6.7293e-05 1 
74 1 -1.2345 10.2964 -13.995 4.87441e-05 1 
75 1 -0.804463 9.51525 -11.2784 0.000127219 1 
76 1 -2.51817 11.7263 -11.8695 0.000126023 1 
77 1 -1.40201 14.1743 -12.8409 0.000100433 1 
78 1 -0.969808 13.3944 -10.1161 0.000402749 1 
79 1 -2.68584 15.5995 -10.7189 0.000245231 1 
80 1 -1.57103 18.0478 -11.6941 0.00021568 1 
81 1 -1.13754 17.2639 -8.96648 0.000697068 1 
82 1 -2.85765 19.4704 -9.58388 0.0006341 1 
83 1 -1.74288 21.9243 -10.5533 0.000248469 1 
84 1 -1.31063 21.1327 -7.83737 0.00216297 1 
85 1 -0.19678 23.5869 -8.79748 0.000945845 1 
86 1 -3.03192 23.35 -8.44535 0.00110256 1 
87 1 -1.91504 25.8058 -9.40465 0.000538697 1 
88 1 -1.48696 25.0123 -6.69821 0.00796252 1 
89 1 -0.368596 27.4704 -7.64185 0.00287007 1 
90 1 -3.20044 27.2404 -7.28863 0.00435147 1 
91 1 -97.7516 29.6785 -8.24782 0.00309529 1 
92 1 -1.64405 28.8881 -5.49836 0.0577828 1 
93 1 -96.2073 31.3479 -6.51352 0.0134272 1 
94 1 -99.0382 31.108 -6.15123 0.00967847 1 
95 1 -97.9337 33.5603 -7.12682 0.00390283 1 
96 1 -97.5056 32.8102 -4.42767 0.112911 1 
97 1 -96.4015 35.2312 -5.37783 0.0455383 1 
98 1 -99.2192 35.003 -4.99211 0.0638295 1 
99 1 -98.1305 37.4085 -5.9864 0.0458839 1 
100 1 -97.6774 36.6877 -3.13615 0.844729 1 
101 1 -96.6114 39.0448 -4.30845 0.272106 1 
102 1 -99.4759 38.7969 -3.90723 0.468113 1 
103 1 -98.3313 41.3173 -4.94566 0.164544 1 
104 1 -97.9653 40.4424 -2.39344 7.10959 5 
105 1 -96.8086 42.9924 -3.20686 0.471106 1 
106 1 -99.6057 42.7098 -2.64986 2.39523 5 
107 1 -3.30248 1.5103 -13.2024 4.5287e-05 1 
108 1 92.7926 0.725733 -10.4885 0.000196499 1 
109 1 -1.75721 3.17701 -11.4639 0.00010885 1 
110 1 -4.59092 2.94331 -11.0804 0.000339334 1 
111 1 -3.47058 5.3942 -12.0549 0.000174557 1 
112 1 -3.04336 4.61152 -9.34732 0.000799859 1 
113 1 -1.92277 7.06357 -10.3129 0.000151667 1 
114 1 -4.75708 6.82667 -9.93221 0.000938443 1 
115 1 -3.63611 9.27695 -10.9002 0.000146075 1 
116 1 -3.20645 8.49603 -8.18704 0.000783652 1 
117 1 -2.08656 10.9472 -9.15096 0.00053137 1 
118 1 -4.92166 10.7059 -8.77501 0.00123741 1 
119 1 -3.8024 13.1538 -9.74444 0.000445327 1 
120 1 -3.37146 12.3755 -7.02795 0.00544709 1 
121 1 -2.25152 14.8193 -7.99176 0.00124688 1 
122 1 -5.08783 14.5725 -7.61336 0.00218361 1 
123 1 -3.97341 17.021 -8.60574 0.000853964 1 
124 1 -3.53776 16.2471 -5.88804 0.0100113 1 
125 1 -2.42433 18.6865 -6.86101 0.0025774 1 
126 1 -5.26738 18.4436 -6.50321 0.00436062 1 
127 1 -4.14969 20.8947 -7.488 0.00322624 1 
128 1 -3.71931 20.1149 -4.77877 0.0252121 1 
129 1 -2.60043 22.5382 -5.73521 0.0256417 1 
130 1 -5.45026 22.3204 -5.40594 0.0143581 1 
131 1 -4.32712 24.7911 -6.35126 0.0123944 1 
132 1 -3.9124 23.9671 -3.71612 0.122353 1 
133 1 -2.77206 26.4609 -4.59151 0.0878984 1 
134 1 -5.61905 26.2573 -4.21894 0.135001 1 
135 1 -4.48162 28.6574 -5.15058 0.0520801 1 
136 1 -3.9923 27.8485 -2.36941 2.47071 5 
137 1 -98.6207 30.3363 -3.45552 0.226472 1 
138 1 -5.79971 30.1306 -3.14515 0.580842 1 
139 1 -100.292 32.57 -4.02423 0.0687352 1 
140 1 -98.758 34.3371 -2.18357 2.18997 5 
141 1 -101.511 34.0097 -1.92956 6.27315 5 
142 1 -100.618 36.4106 -2.95704 1.94963 5 
143 1 -102.25 37.8143 -0.772573 11.0243 5 
144 1 -100.732 40.18 -1.63311 6.67758 5 
145 1 89.9592 0.493083 -10.1002 0.000423696 1 
146 1 -4.16779 2.16331 -8.37459 0.00294072 1 
147 1 88.6691 1.93065 -7.96563 0.00114645 1 
148 1 -5.88063 4.37817 -8.95356 0.00129483 1 
149 1 -5.46353 3.60403 -6.24557 0.0134595 1 
150 1 -4.33099 6.05077 -7.23264 0.0110627 1 
151 1 -7.16562 5.80511 -6.80358 0.00581866 1 
152 1 -6.04434 8.25165 -7.80566 0.00299948 1 
153 1 -5.62379 7.46388 -5.09129 0.0424871 1 
154 1 -4.49732 9.9204 -6.07047 0.0220364 1 
155 1 -7.32029 9.68763 -5.6922 0.0513529 1 
156 1 -6.19888 12.1246 -6.62542 0.0172613 1 
157 1 -5.7449 11.3713 -3.85759 6.37651 5 
158 1 -4.65486 13.7921 -4.87725 0.0635064 1 
159 1 -7.49271 13.5548 -4.54738 0.0457672 1 
160 1 -6.37254 15.9942 -5.4956 0.0102207 1 
161 1 -5.9498 15.1986 -2.75632 7.30851 5 
162 1 -4.8312 17.6695 -3.77989 0.0863055 1 
163 1 -7.68544 17.4213 -3.42746 0.0540569 1 
164 1 -6.5801 19.8933 -4.44089 0.0490019 1 
165 1 -6.21047 19.1723 -1.81918 1.01565 1 
166 1 -5.01115 21.5461 -2.69117 0.180712 1 
167 1 -7.91587 21.3208 -2.2965 0.187292 1 
168 1 -6.76813 23.7573 -3.3536 0.227064 1 
169 1 -5.28638 25.3784 -1.6583 6.69885 5 
170 1 -6.94688 27.6542 -1.95372 4.62401 5 
171 1 -5.3432 29.4595 -0.643942 12.4008 5 
172 1 -102.645 31.693 -0.716389 10.5738 5 
173 1 89.093 1.16101 -5.24065 0.0135664 1 
174 1 86.2717 0.935167 -4.85302 0.0239141 1 
175 1 -8.28514 3.37377 -5.81785 0.00525048 1 
176 1 -7.86984 2.63533 -3.08259 0.128474 1 
177 1 -6.72972 5.03602 -4.04082 0.115297 1 
178 1 -9.56955 4.79314 -3.65996 0.0579801 1 
179 1 -8.44816 7.23388 -4.68223 0.0655944 1 
180 1 -7.94366 6.50358 -1.97791 5.60108 5 
181 1 -6.92171 8.95391 -3.02107 7.32439 5 
182 1 -9.63911 8.69229 -2.4026 6.76358 5 
183 1 -8.55447 11.1024 -3.51616 0.644051 1 
184 1 -7.04708 12.7925 -1.7855 10.4571 5 
185 1 -9.89773 12.5151 -1.60944 12.5682 5 
186 1 -8.76249 14.9674 -2.39756 2.79213 5 
187 1 86.7306 0.102139 -2.20359 3.22143 5 
188 1 84.9163 2.36645 -2.75991 0.439225 1 
189 1 -10.7696 6.25057 -1.57738 8.53974 5 
201 1 -95.7881 31.4877 -14.0706 6.58937e-05 1 
202 1 -97.5065 33.7015 -14.6778 6.55233e-05 1 
204 1 -95.9627 35.3615 -12.9358 0.000218057 1 
205 1 -97.6822 37.5802 -13.5421 0.000152844 1 
206 1 -96.5672 40.0342 -14.5174 0.000108192 1 
207 1 -96.14 39.242 -11.8073 0.000473673 1 
208 1 -97.8575 41.4649 -12.4029 0.000210106 1 
209 1 -96.7396 43.9202 -13.3731 9.72958e-05 1 
210 1 -96.3151 43.1303 -10.6667 0.000457233 1 
230 1 -2.00285 18.8337 -14.4167 5.6714e-05 1 
234 1 -2.17431 22.7121 -13.2712 6.35845e-05 1 
235 1 -1.06032 25.1633 -14.241 3.69859e-05 1 
236 1 -3.89169 24.9265 -13.8729 4.70571e-05 1 
237 1 -2.77726 27.3766 -14.8439 2.71527e-05 1 
238 1 -2.34607 26.5914 -12.1231 7.98895e-05 1 
239 1 -96.9013 29.0398 -13.0943 4.84921e-05 1 
240 1 -4.06422 28.8047 -12.7259 6.95438e-05 1 
241 1 -98.6197 31.2524 -13.7003 6.26851e-05 1 
242 1 -98.1874 30.4658 -10.9768 0.00022862 1 
243 1 -97.0754 32.9131 -11.9562 0.000146854 1 
244 1 -99.9088 32.6792 -11.5854 0.000140768 1 
245 1 -98.7961 35.1285 -12.5642 0.000152233 1 
246 1 -98.3664 34.3393 -9.84661 0.000436257 1 
247 1 -97.2546 36.7878 -10.8284 0.000642179 1 
248 1 -100.088 36.5567 -10.4509 0.000223795 1 
249 1 -98.9741 39.0094 -11.4279 0.000230498 1 
250 1 -98.5512 38.2123 -8.71593 0.00188398 1 
251 1 -97.4354 40.6716 -9.69906 0.00115388 1 
252 1 -100.268 40.4419 -9.31076 0.00155359 1 
253 1 -99.1487 42.8984 -10.2848 0.000811724 1 
254 1 -98.7357 42.1108 -7.58796 0.0134269 1 
262 1 -3.89761 6.17717 -14.7687 5.21477e-05 1 
266 1 -4.06518 10.0578 -13.6171 6.41411e-05 1 
267 1 -2.94846 12.5074 -14.5902 4.09642e-05 1 
268 1 -5.77927 12.2674 -14.2128 4.43116e-05 1 
270 1 -4.2333 13.934 -12.467 8.523e-05 1 
271 1 -3.11761 16.383 -13.4427 8.01784e-05 1 
272 1 -5.94961 16.142 -13.0687 7.45634e-05 1 
273 1 -4.83443 18.5939 -14.046 6.89756e-05 1 
274 1 -4.40435 17.8066 -11.3269 0.000246405 1 
275 1 -3.28896 20.2592 -12.3013 0.000152232 1 
276 1 -6.12288 20.0195 -11.9322 0.00020337 1 
277 1 -5.00702 22.4742 -12.9039 0.000118345 1 
278 1 -4.57807 21.686 -10.1929 0.000532229 1 
279 1 -3.4614 24.1404 -11.1568 0.000161413 1 
280 1 -6.29665 23.9046 -10.7906 0.000363617 1 
281 1 -5.17949 26.3563 -11.7561 0.00014872 1 
282 1 -4.75032 25.5731 -9.04505 0.000986555 1 
283 1 -3.6323 28.0206 -10.0064 0.00035303 1 
284 1 -6.46832 27.7866 -9.63693 0.000436126 1 
285 1 -101.021 30.2319 -10.6084 0.000198548 1 
286 1 -4.91783 29.4448 -7.88753 0.00239985 1 
287 1 -99.4759 31.8928 -8.86577 0.000378802 1 
288 1 -102.31 31.6601 -8.4954 0.00147827 1 
289 1 -101.201 34.1069 -9.47159 0.000480502 1 
290 1 -100.763 33.3274 -6.75078 0.00558718 1 
291 1 -99.661 35.765 -7.73532 0.00358527 1 
292 1 -102.5 35.533 -7.36133 0.0026754 1 
293 1 -101.385 37.9874 -8.33883 0.00163588 1 
294 1 -100.973 37.1831 -5.64353 0.0266811 1 
295 1 -99.8546 39.6387 -6.6073 0.0194367 1 
296 1 -102.679 39.4335 -6.21861 0.0100426 1 
297 1 -101.55 41.8796 -7.16921 0.00793339 1 
298 1 -101.124 41.0722 -4.43469 0.0831631 1 
299 1 -100.022 43.5463 -5.4006 0.0561516 1 
300 1 -102.828 43.3153 -5.04717 0.0521961 1 
302 1 89.5357 1.27535 -12.8157 9.70753e-05 1 
303 1 -5.0158 3.72613 -13.7936 7.71249e-05 1 
304 1 -7.84566 3.48964 -13.4053 7.17997e-05 1 
305 1 -6.72831 5.93954 -14.3846 6.10339e-05 1 
306 1 -6.30355 5.15774 -11.6668 0.000239127 1 
307 1 -5.18355 7.60764 -12.644 0.000164592 1 
308 1 -8.01464 7.36804 -12.2551 0.000114572 1 
309 1 -6.89639 9.81764 -13.2357 9.39405e-05 1 
310 1 -6.46958 9.03581 -10.5171 0.000418276 1 
311 1 -5.35024 11.4856 -11.492 0.000166154 1 
312 1 -8.1817 11.2429 -11.1085 0.000322079 1 
313 1 -7.06486 13.6918 -12.0888 0.000123806 1 
314 1 -6.63412 12.9085 -9.36194 0.00102651 1 
315 1 -5.51946 15.3564 -10.3447 0.000262786 1 
316 1 -8.35217 15.1134 -9.96986 0.000174356 1 
317 1 -7.23808 17.5651 -10.9529 0.00020672 1 
318 1 -6.80843 16.777 -8.22994 0.000947778 1 
319 1 -5.69491 19.2297 -9.21919 0.000881807 1 
320 1 -8.5312 18.99 -8.84307 0.000792036 1 
321 1 -7.41478 21.4478 -9.82305 0.000669298 1 
322 1 -6.99356 20.659 -7.12443 0.00461321 1 
323 1 -5.87163 23.1179 -8.08995 0.00175302 1 
324 1 -8.70859 22.8808 -7.71066 0.00175635 1 
325 1 -7.58768 25.3384 -8.6733 0.00124154 1 
326 1 -7.16604 24.5622 -5.9812 0.0188251 1 
327 1 -6.03986 27.0088 -6.92379 0.00454097 1 
328 1 -8.87645 26.7644 -6.53702 0.00346797 1 
329 1 -7.75617 29.2122 -7.51064 0.00245323 1 
330 1 -7.33255 28.4219 -4.78261 0.0470898 1 
331 1 -101.868 30.8805 -5.79699 0.0270258 1 
332 1 -9.03034 30.6253 -5.36445 0.0354716 1 
333 1 -103.605 33.082 -6.38171 0.00763646 1 
334 1 -103.125 32.2934 -3.68209 0.197675 1 
335 1 -102.081 34.7369 -4.65032 0.0546729 1 
336 1 -104.91 34.5266 -4.28616 0.109706 1 
337 1 -103.794 36.9609 -5.24361 0.0180789 1 
338 1 -103.399 36.1535 -2.51251 2.06688 5 
339 1 -102.266 38.6411 -3.54981 0.293917 1 
340 1 -105.083 38.4054 -3.22283 5.74239 5 
341 1 -103.981 40.9043 -4.10017 0.134694 1 
342 1 -103.631 40.0273 -1.50332 7.37721 5 
343 1 -102.354 42.4514 -2.30211 2.79492 5 
344 1 -105.185 42.3755 -1.87304 6.34023 5 
345 1 45.083 0.0534908 -0.600878 12.3052 5 
346 1 86.708 1.0399 -12.425 0.000106098 1 
347 1 87.1323 0.259106 -9.70444 0.000402027 1 
348 1 -7.42208 2.70843 -10.6853 0.00020146 1 
349 1 85.4204 2.47405 -10.2896 0.000337473 1 
350 1 -9.13264 4.9203 -11.2721 0.000132298 1 
351 1 -8.70939 4.14236 -8.547 0.000367503 1 
352 1 -7.59128 6.5869 -9.53169 0.000521124 1 
353 1 -10.4186 6.34845 -9.13239 0.000309417 1 
354 1 -9.29997 8.79398 -10.122 0.000464564 1 
355 1 -8.87841 8.01611 -7.39292 0.0059944 1 
356 1 -7.75371 10.4633 -8.38858 0.00376254 1 
357 1 -10.5812 10.2116 -7.97639 0.00407362 1 
358 1 -9.46704 12.661 -8.97976 0.00110498 1 
359 1 -9.0363 11.8703 -6.24786 0.0204403 1 
360 1 -7.92189 14.3294 -7.24875 0.00237608 1 
361 1 -10.7545 14.0813 -6.86651 0.00576376 1 
362 1 -9.64227 16.5343 -7.85313 0.000661916 1 
363 1 -9.21297 15.7468 -5.12417 0.013665 1 
364 1 -8.10847 18.2023 -6.13055 0.00533796 1 
365 1 -10.9338 17.9634 -5.74622 0.00314065 1 
366 1 -9.82757 20.4193 -6.72697 0.00186895 1 
367 1 -9.41039 19.6332 -3.99905 0.0270535 1 
368 1 -8.30017 22.0886 -5.0184 0.0205152 1 
369 1 -11.1213 21.8633 -4.6087 0.0135347 1 
370 1 -9.99045 24.3091 -5.57673 0.0122338 1 
371 1 -9.54163 23.5215 -2.84239 0.210832 1 
372 1 -8.44702 25.9863 -3.7934 0.0712724 1 
373 1 -11.287 25.7302 -3.51262 0.0947137 1 
374 1 -10.1445 28.1968 -4.40674 0.0287027 1 
375 1 -9.79041 27.4021 -1.6778 6.50883 5 
376 1 -8.55705 29.8793 -2.56005 5.84017 5 
377 1 -11.378 29.6067 -2.253 1.38515 5 
378 1 -105.992 32.0627 -3.30264 0.13844 1 
379 1 -105.488 31.384 -0.532411 10.9822 5 
380 1 -104.323 33.7102 -1.71035 7.23648 5 
381 1 -106.135 35.9291 -2.02555 4.27248 5 
382 1 -105.333 38.0924 -0.557648 12.7829 5 
383 1 85.843 1.70056 -7.5658 0.00129597 1 
384 1 83.0186 1.45935 -7.16977 0.00156844 1 
385 1 -11.5386 3.90821 -8.14603 0.0018238 1 
386 1 84.5451 3.14038 -5.42441 0.015606 1 
387 1 -9.99543 5.56877 -6.40149 0.00327461 1 
388 1 -12.8247 5.33914 -5.97477 0.0135912 1 
389 1 -11.698 7.77515 -6.98471 0.00381504 1 
390 1 -11.2552 7.00865 -4.26296 0.0674609 1 
391 1 -10.1516 9.44384 -5.20103 0.0665022 1 
392 1 -12.9692 9.18155 -4.82431 0.0333195 1 
393 1 -11.866 11.6143 -5.84102 0.0260828 1 
394 1 -11.4737 10.8276 -3.01131 5.77632 5 
395 1 -10.3435 13.295 -4.18504 0.167271 1 
396 1 -13.1434 13.0586 -3.68935 7.06726 5 
397 1 -12.0433 15.5031 -4.73958 0.0295552 1 
398 1 -11.577 14.6382 -1.96587 3.93508 5 
399 1 -10.5289 17.1638 -3.04456 0.102873 1 
400 1 -13.3777 16.9443 -2.69374 0.358953 1 
401 1 -12.2222 19.4086 -3.64083 0.0228492 1 
402 1 -11.7762 18.6587 -0.97454 3.62409 5 
403 1 -10.6985 21.1404 -1.87969 0.16227 1 
404 1 -13.558 20.8338 -1.58582 0.191363 1 
405 1 -12.4535 23.2851 -2.49952 0.076659 1 
406 1 -10.869 24.8397 -0.879423 3.98337 5 
407 1 -12.6636 27.1524 -1.44234 5.83347 5 
408 1 -12.6761 31.0756 -0.352182 11.8819 5 
409 1 83.4318 0.68014 -4.44345 0.032602 1 
410 1 80.6018 0.441639 -4.08127 0.055946 1 
411 1 81.7317 2.88898 -5.00602 0.0163578 1 
412 1 82.0842 2.0758 -2.27393 6.80622 5 
413 1 -12.4145 4.56797 -3.21785 0.209156 1 
414 1 80.4251 4.32202 -2.90186 0.151663 1 
415 1 -14.0978 6.75985 -3.77517 0.117657 1 
416 1 -13.6485 5.91294 -0.938804 5.67946 5 
417 1 -12.468 8.35815 -2.0614 1.56744 5 
418 1 -15.2792 8.21415 -1.6422 5.27613 5 
419 1 -14.2366 10.6635 -2.71979 6.92693 5 
420 1 -13.3382 10.0818 -0.228169 13.2289 5 
421 1 -14.44 14.4079 -1.49321 6.63873 5 
422 1 -12.8037 16.24 -0.183162 13.8986 5 
423 1 79.2865 1.84516 -1.87513 3.40285 5 
500 1 -99.3993 39.8006 -14.1395 6.8655e-05 1 
502 1 -101.114 42.0203 -14.7329 3.14731e-05 1 
503 1 -99.5713 43.6861 -12.9937 8.51388e-05 1 
532 1 -5.60921 27.141 -14.4726 3.74663e-05 1 
536 1 -101.452 31.0184 -13.3271 6.76161e-05 1 
537 1 -100.339 33.4675 -14.3038 6.4506e-05 1 
538 1 -103.171 33.2342 -13.9255 6.61549e-05 1 
539 1 -102.056 35.6849 -14.9025 5.06832e-05 1 
540 1 -101.629 34.8959 -12.1871 0.000118298 1 
541 1 -100.515 37.3476 -13.1642 8.37765e-05 1 
542 1 -103.346 37.1154 -12.7825 0.000108571 1 
543 1 -102.23 39.5678 -13.7583 5.40392e-05 1 
544 1 -101.806 38.7792 -11.0463 0.000209157 1 
545 1 -100.689 41.2326 -12.0201 0.000141821 1 
546 1 -103.519 41.0011 -11.6352 6.62163e-05 1 
547 1 -102.402 43.4522 -12.61 2.18984e-05 1 
548 1 -101.976 42.6664 -9.89334 0.000472357 1 
564 1 -7.49409 14.4769 -14.8119 3.48143e-05 1 
568 1 -7.66642 18.3538 -13.6717 6.20387e-05 1 
569 1 -6.55137 20.8078 -14.6473 4.98078e-05 1 
570 1 -9.38267 20.5689 -14.2719 4.11427e-05 1 
572 1 -7.84027 22.2362 -12.5315 0.000130681 1 
573 1 -6.72438 24.69 -13.5019 7.45309e-05 1 
574 1 -9.55608 24.4529 -13.1262 5.05803e-05 1 
575 1 -8.44106 26.9053 -14.0976 3.75396e-05 1 
576 1 -8.01339 26.1206 -11.3826 0.000162564 1 
577 1 -6.8976 28.5702 -12.353 8.52523e-05 1 
578 1 -9.72918 28.3354 -11.9744 5.64042e-05 1 
579 1 -8.61542 30.785 -12.9484 8.0122e-05 1 
580 1 -8.18651 29.9985 -10.2305 0.000245188 1 
581 1 -102.743 32.4468 -11.2087 0.000214221 1 
582 1 -105.574 32.2146 -10.822 0.000292409 1 
583 1 -104.461 34.6639 -11.8037 0.000159899 1 
584 1 -104.036 33.8759 -9.08802 0.000916013 1 
585 1 -102.921 36.3257 -10.0707 0.000417561 1 
586 1 -105.751 36.0957 -9.67878 0.000618015 1 
587 1 -104.635 38.5483 -10.6598 0.000237939 1 
588 1 -104.211 37.7582 -7.9523 0.00195204 1 
589 1 -103.094 40.2163 -8.9234 0.00074538 1 
590 1 -105.923 39.9848 -8.53664 0.00342411 1 
591 1 -104.807 42.4367 -9.51164 0.000450124 1 
592 1 -104.38 41.6597 -6.80247 0.00594561 1 
593 1 -103.262 44.1016 -7.77264 0.00249123 1 
594 1 -106.1 43.8737 -7.38896 0.00296545 1 
602 1 -9.55709 5.70138 -13.997 6.07937e-05 1 
603 1 -8.44058 8.15065 -14.9778 4.07968e-05 1 
604 1 -11.2686 7.91118 -14.5926 5.82026e-05 1 
606 1 -9.72602 9.57646 -12.8491 0.000100004 1 
607 1 -8.6097 12.0262 -13.8322 6.31648e-05 1 
608 1 -11.4383 11.7842 -13.4485 0.000107366 1 
609 1 -10.324 14.2357 -14.4328 5.17738e-05 1 
610 1 -9.89552 13.4482 -11.7079 0.000176323 1 
611 1 -8.78107 15.9006 -12.6922 6.82856e-05 1 
612 1 -11.6105 15.6587 -12.3129 0.000101625 1 
613 1 -10.4971 18.1137 -13.2947 5.73968e-05 1 
614 1 -10.0698 17.3239 -10.5751 0.000155404 1 
615 1 -8.95593 19.7799 -11.5567 0.000164906 1 
616 1 -11.7857 19.5401 -11.1781 0.000106456 1 
617 1 -10.6713 21.9974 -12.154 5.68474e-05 1 
618 1 -10.2471 21.2085 -9.44089 0.000210059 1 
619 1 -9.13053 23.667 -10.4142 0.000249087 1 
620 1 -11.9601 23.4282 -10.0346 8.01745e-05 1 
621 1 -10.8441 25.8837 -11.0038 5.90019e-05 1 
622 1 -10.4201 25.0988 -8.28912 0.000452757 1 
623 1 -9.30164 27.5504 -9.25674 0.000230125 1 
624 1 -12.1309 27.3157 -8.87884 0.000272827 1 
625 1 -11.0161 29.7656 -9.84753 0.000193494 1 
626 1 -10.5854 28.9805 -7.12708 0.00153808 1 
627 1 -105.143 31.4233 -8.10155 0.00200481 1 
628 1 -12.3001 31.194 -7.71465 0.00149824 1 
629 1 -106.864 33.6482 -8.69107 0.00205934 1 
630 1 -106.433 32.8544 -5.98498 0.0132598 1 
631 1 -105.335 35.3152 -6.96236 0.00813441 1 
632 1 -108.152 35.0907 -6.53369 0.017084 1 
633 1 -107.039 37.5262 -7.54382 0.00833172 1 
634 1 -106.637 36.7468 -4.79312 0.159273 1 
635 1 -105.501 39.1979 -5.8526 0.0519756 1 
636 1 -108.293 38.949 -5.36268 0.114393 1 
637 1 -107.203 41.4153 -6.394 0.0110398 1 
638 1 -106.735 40.656 -3.67226 6.81884 5 
639 1 -105.665 43.1078 -4.68308 0.0304889 1 
640 1 -108.488 42.8634 -4.3073 0.0484526 1 
641 1 83.457 1.58574 -14.7631 5.39848e-05 1 
642 1 83.8835 0.804132 -12.0372 0.000158732 1 
643 1 -10.6726 3.25301 -13.0159 0.000108138 1 
644 1 82.1722 3.01546 -12.6303 0.000177037 1 
645 1 -12.3836 5.46317 -13.6102 0.000115788 1 
646 1 -11.9586 4.68304 -10.879 0.000370086 1 
647 1 -10.8425 7.12845 -11.8639 0.000142547 1 
648 1 -13.6673 6.889 -11.4744 0.000442876 1 
649 1 -12.5529 9.33527 -12.4621 0.000138911 1 
650 1 -12.1258 8.55194 -9.72631 0.000376503 1 
651 1 -11.0103 10.9978 -10.7169 0.000413757 1 
652 1 -13.8355 10.7553 -10.3312 0.000371762 1 
653 1 -12.7228 13.2047 -11.3239 0.000280839 1 
654 1 -12.2934 12.4137 -8.58683 0.00126997 1 
655 1 -11.182 14.8686 -9.58866 0.000361654 1 
656 1 -14.0057 14.6225 -9.20229 0.00125899 1 
657 1 -12.8976 17.0816 -10.1959 0.000313284 1 
658 1 -12.4691 16.2883 -7.47219 0.00221837 1 
659 1 -11.3609 18.7501 -8.4613 0.000342457 1 
660 1 -14.1876 18.5087 -8.08502 0.000935623 1 
661 1 -13.0755 20.9693 -9.06239 0.000146584 1 
662 1 -12.6547 20.1836 -6.3486 0.00125043 1 
663 1 -11.5378 22.6413 -7.32316 0.000725066 1 
664 1 -14.3699 22.3987 -6.94835 0.000906709 1 
665 1 -13.2499 24.8606 -7.91424 0.000434607 1 
666 1 -12.8375 24.0694 -5.21242 0.00518426 1 
667 1 -11.7106 26.5363 -6.16833 0.00678768 1 
668 1 -14.5411 26.2965 -5.78696 0.00578605 1 
669 1 -13.4149 28.7476 -6.74788 0.00288181 1 
670 1 -13.0052 27.985 -4.03159 0.089748 1 
671 1 -11.8643 30.3965 -4.98727 0.0220106 1 
672 1 -14.6869 30.1615 -4.58957 0.0419152 1 
673 1 -109.241 32.6343 -5.58245 0.0118044 1 
674 1 -13.1508 31.8498 -2.90867 0.260177 1 
675 1 -107.697 34.3131 -3.80993 0.0328173 1 
676 1 -110.474 34.0793 -3.41122 0.0939133 1 
677 1 -109.405 36.5701 -4.31009 0.13679 1 
678 1 -108.873 35.7906 -1.60426 7.72286 5 
679 1 -107.784 38.2969 -2.40239 10.3697 5 
680 1 -110.602 38.088 -2.03941 5.66748 5 
681 1 -109.496 40.3917 -3.28472 0.586264 1 
682 1 -107.969 42.1256 -1.58578 10.1554 5 
683 1 -110.86 41.8305 -1.4243 13.5589 5 
684 1 81.0606 0.566183 -11.655 0.000150251 1 
685 1 82.5972 2.23673 -9.89901 0.00061965 1 
686 1 79.7772 1.99536 -9.52152 0.000582879 1 
687 1 -14.7802 4.44381 -10.4926 0.000688805 1 
688 1 81.3123 3.66892 -7.7485 0.00323379 1 
689 1 -13.242 6.11013 -8.73111 0.00195585 1 
690 1 -16.0613 5.87099 -8.35486 0.00199863 1 
691 1 -14.9482 8.31081 -9.33487 0.00177058 1 
692 1 -14.5179 7.53065 -6.57157 0.01153 1 
693 1 -13.4059 9.96721 -7.58632 0.00193913 1 
694 1 -16.2262 9.73182 -7.20146 0.00302383 1 
695 1 -15.1162 12.1748 -8.20682 0.000595381 1 
696 1 -14.6822 11.3915 -5.46519 0.0155369 1 
697 1 -13.5706 13.8269 -6.45375 0.00907875 1 
698 1 -16.3926 13.5792 -6.0761 0.0257339 1 
699 1 -15.289 16.0377 -7.09534 0.00453859 1 
700 1 -14.8614 15.2459 -4.3578 0.0470016 1 
701 1 -13.7562 17.721 -5.37911 0.0131211 1 
702 1 -16.5607 17.4495 -4.99299 0.0380413 1 
703 1 -15.4869 19.9371 -5.96664 0.00871296 1 
704 1 -15.0459 19.1202 -3.25915 0.0721767 1 
705 1 -13.9668 21.6133 -4.24455 0.0118986 1 
706 1 -16.8075 21.3701 -3.8341 0.0995879 1 
707 1 -15.6707 23.8259 -4.82837 0.00518724 1 
708 1 -15.2798 23.0532 -2.11626 0.0925673 1 
709 1 -14.1501 25.4976 -3.10009 0.0626809 1 
710 1 -16.9662 25.2857 -2.72438 0.18611 1 
711 1 -15.8163 27.7336 -3.60721 0.0550221 1 
712 1 -14.3151 29.388 -1.73174 5.55214 5 
713 1 -17.1357 29.1384 -1.41982 5.4095 5 
714 1 -15.8983 31.5942 -2.43007 6.74164 5 
715 1 -111.623 35.5663 -1.36392 8.32151 5 
716 1 80.2013 1.21627 -6.79295 0.00350494 1 
717 1 77.3836 0.96217 -6.43382 0.00754735 1 
718 1 78.4952 3.42051 -7.38718 0.00331601 1 
719 1 78.9102 2.63335 -4.64287 0.0360874 1 
720 1 -15.6479 5.10589 -5.60142 0.0156926 1 
721 1 77.2055 4.84474 -5.28615 0.0289129 1 
722 1 -17.3389 7.30202 -6.22131 0.0128692 1 
723 1 -16.9544 6.56528 -3.45705 0.331663 1 
724 1 -15.7773 8.96223 -4.43137 0.0363394 1 
725 1 -18.5772 8.74545 -4.0431 0.236473 1 
726 1 -17.4893 11.153 -5.0603 0.0327668 1 
727 1 -16.9588 10.4465 -2.23975 6.25032 5 
728 1 -15.9337 12.8322 -3.27435 0.354518 1 
729 1 -18.7801 12.58 -2.99865 0.514341 5 
730 1 -17.6818 15.0155 -4.03821 0.0897052 1 
731 1 -17.4037 14.1886 -1.2704 7.982 5 
732 1 -16.1399 16.6138 -2.1935 5.94221 5 
733 1 -18.9332 16.4613 -1.92669 1.60947 5 
734 1 -17.8359 18.8546 -2.97839 0.205494 1 
735 1 -16.3214 20.5077 -1.20418 6.19043 5 
736 1 -19.1123 20.2657 -1.01209 6.44281 5 
737 1 -18.1117 22.7989 -1.62692 4.20659 5 
738 1 77.7653 0.202554 -3.69668 0.243376 1 
739 1 76.0893 2.3542 -4.32323 0.169464 1 
740 1 76.5099 1.46604 -1.28375 6.80974 5 
741 1 77.5488 4.00564 -2.59962 0.473872 1 
742 1 74.7553 3.60884 -2.26975 6.17455 5 
743 1 -19.7474 6.31616 -3.20079 0.70034 1 
744 1 -18.039 8.20251 -0.996751 10.0687 5 
745 1 -20.8974 7.87558 -1.02781 10.6373 5 
746 1 -19.777 10.1992 -1.967 2.63298 5 
747 1 -20.272 14.1634 -1.13855 9.22461 5 
748 1 73.7324 1.22407 -1.09396 6.99512 5 
924 1 -104.887 35.4516 -14.5203 5.3245e-05 1 
928 1 -105.06 39.3347 -13.3735 5.8227e-05 1 
929 1 -103.944 41.7864 -14.3499 2.25498e-05 1 
930 1 -106.774 41.5518 -13.964 4.99996e-05 1 
931 1 -105.658 44.0029 -14.9417 2.96654e-05 1 
932 1 -105.233 43.2188 -12.2255 8.0217e-05 1 
957 1 -11.098 22.7854 -14.8692 1.89899e-05 1 
961 1 -11.271 26.6694 -13.7198 2.49598e-05 1 
962 1 -10.157 29.121 -14.6921 2.9819e-05 1 
963 1 -12.9854 28.8864 -14.3128 3.64442e-05 1 
965 1 -11.4445 30.5518 -12.5663 8.30421e-05 1 
966 1 -106.001 33.0013 -13.5422 7.37639e-05 1 
967 1 -108.827 32.7686 -13.1576 8.85035e-05 1 
968 1 -107.715 35.2184 -14.1347 6.49064e-05 1 
969 1 -107.288 34.4325 -11.4135 0.000262777 1 
970 1 -106.175 36.883 -12.3947 0.000125921 1 
971 1 -109 36.6497 -12.0029 0.000223807 1 
972 1 -107.888 39.1004 -12.9842 0.000105417 1 
973 1 -107.462 38.3152 -10.2633 0.000783404 1 
974 1 -106.348 40.7676 -11.2472 0.000266533 1 
975 1 -109.172 40.5302 -10.8495 0.000579448 1 
976 1 -108.061 42.9833 -11.8349 0.000123476 1 
977 1 -107.636 42.1989 -9.11545 0.000906056 1 
993 1 -13.152 13.9946 -14.053 9.31351e-05 1 
995 1 -14.8668 16.2087 -14.6585 7.92111e-05 1 
997 1 -13.3256 17.8734 -12.9173 9.11658e-05 1 
998 1 -12.2122 20.3299 -13.895 3.56883e-05 1 
999 1 -15.0405 20.0913 -13.5197 5.2529e-05 1 
1000 1 -13.9267 22.5478 -14.4931 2.11719e-05 1 
1001 1 -13.4998 21.7587 -11.7772 5.3539e-05 1 
1002 1 -12.3854 24.2154 -12.7488 3.0689e-05 1 
1003 1 -15.2131 23.9781 -12.3736 4.17639e-05 1 
1004 1 -14.099 26.4336 -13.3425 3.39925e-05 1 
1005 1 -13.6723 25.6469 -10.6269 8.68218e-05 1 
1006 1 -12.5577 28.1008 -11.595 6.77641e-05 1 
1007 1 -15.3837 27.866 -11.2175 0.000117417 1 
1008 1 -14.2706 30.3187 -12.1849 0.000120141 1 
1009 1 -13.8421 29.5331 -9.46579 0.000337058 1 
1010 1 -12.7305 31.9837 -10.4351 0.000336659 1 
1011 1 -15.5517 31.7521 -10.0507 0.00049162 1 
1012 1 -110.111 34.201 -11.024 0.000261792 1 
1013 1 -109.681 33.4201 -8.29501 0.00242133 1 
1014 1 -108.574 35.8653 -9.27504 0.00147592 1 
1015 1 -111.388 35.6345 -8.88238 0.00202429 1 
1016 1 -110.28 38.0806 -9.86349 0.00113237 1 
1017 1 -109.847 37.3006 -7.11712 0.0119611 1 
1018 1 -108.74 39.7425 -8.11385 0.00578551 1 
1019 1 -111.554 39.5055 -7.72597 0.00933154 1 
1020 1 -110.457 41.9612 -8.72164 0.00150804 1 
1021 1 -110.021 41.1721 -5.99721 0.0246077 1 
1022 1 -108.923 43.6407 -6.99189 0.00343399 1 
1023 1 -111.746 43.408 -6.60462 0.00911836 1 
1025 1 80.632 1.34825 -14.3828 5.74039e-05 1 
1027 1 78.9192 3.55935 -14.9821 6.05703e-05 1 
1029 1 -15.2081 5.22463 -13.2284 0.00018775 1 
1030 1 -14.0949 7.67203 -14.2093 0.000129018 1 
1031 1 -16.9206 7.43382 -13.8322 0.000137984 1 
1032 1 -15.8077 9.88157 -14.8136 0.000119227 1 
1033 1 -15.3779 9.09536 -12.0791 0.000387162 1 
1034 1 -14.265 11.5432 -13.0672 0.000165283 1 
1035 1 -17.0913 11.3042 -12.6911 0.000243341 1 
1036 1 -15.9792 13.7548 -13.6766 0.000138894 1 
1037 1 -15.5482 12.9637 -10.9461 0.000301415 1 
1038 1 -14.437 15.4167 -11.9339 0.000267771 1 
1039 1 -17.2639 15.1764 -11.5625 0.000598866 1 
1040 1 -16.153 17.6337 -12.5434 0.000179298 1 
1041 1 -15.7225 16.8386 -9.82184 0.00074247 1 
1042 1 -14.6132 19.2999 -10.8024 0.000157728 1 
1043 1 -17.4402 19.0606 -10.4336 0.000376403 1 
1044 1 -16.3275 21.5202 -11.404 9.56011e-05 1 
1045 1 -15.9027 20.7278 -8.68836 0.000615371 1 
1046 1 -14.7879 23.1889 -9.65962 0.000145986 1 
1047 1 -17.6145 22.95 -9.28929 0.000310185 1 
1048 1 -16.4984 25.4096 -10.2532 0.000105231 1 
1049 1 -16.0756 24.6195 -7.53983 0.000625817 1 
1050 1 -14.9576 27.0797 -8.50107 0.000510909 1 
1051 1 -17.7801 26.8416 -8.13187 0.000697065 1 
1052 1 -16.6636 29.2994 -9.08738 0.000592677 1 
1053 1 -16.2355 28.5103 -6.36219 0.00470245 1 
1054 1 -15.1174 30.9633 -7.32542 0.00239782 1 
1055 1 -17.9339 30.7353 -6.95896 0.00208946 1 
1056 1 -16.823 33.1901 -7.91167 0.00350009 1 
1057 1 -16.3659 32.3911 -5.18913 0.0238322 1 
1058 1 -110.945 34.8696 -6.12812 0.022752 1 
1059 1 -113.764 34.6418 -5.79465 0.0220271 1 
1060 1 -112.657 37.0711 -6.74986 0.00716638 1 
1061 1 -112.212 36.3349 -3.97791 0.139561 1 
1062 1 -111.103 38.7339 -4.94732 0.10887 1 
1063 1 -113.924 38.4833 -4.63728 0.12501 1 
1064 1 -112.846 40.9364 -5.64019 0.0359432 1 
1065 1 -112.424 40.1705 -2.91593 5.61539 5 
1066 1 -111.348 42.6438 -3.9401 0.227468 1 
1067 1 -114.115 42.3861 -3.47048 6.72523 5 