ITEM: TIMESTEP
0
ITEM: NUMBER OF ATOMS
26736
ITEM: BOX BOUNDS xy xz yz pp pp ss
-51.228672488 417.8375402 -51.228672488
0 35.654128304 0
-328.6389847493747 356.0801437110844 0
ITEM: ATOMS id type x y z c_csym c_cna 
298213 2 -44.0665 30.7205 14.5004 0.000459201 1 
84481 1 -1.53033 1.21678 -12.2062 0.000924816 1 
90009 1 -0.0648072 7.95615 -13.4158 0.000402353 1 
90073 1 -0.956297 5.51721 -14.6036 0.000293039 1 
90074 1 -3.65985 6.22541 -13.9994 0.000388442 1 
90075 1 -1.69997 6.16288 -11.8922 0.000641773 1 
90076 1 -2.59517 3.72351 -13.0949 0.00132987 1 
90077 1 -0.633373 3.66211 -10.9906 0.00225417 1 
90078 1 -3.34313 4.37285 -10.38 0.00989385 1 
90079 1 -1.3779 4.30777 -8.28125 0.0181869 1 
90080 1 -2.28308 1.85703 -9.51964 0.0052991 1 
90081 1 -0.305122 1.78623 -7.4361 0.12089 1 
90082 1 -3.07133 2.49422 -6.86651 0.0590953 1 
90083 1 -1.13878 2.45731 -4.9189 4.77737 5 
295632 2 -25.4065 17.7988 1.64572 0.0585537 1 
90156 1 -5.29921 4.42985 -12.4997 0.00102604 1 
95784 1 -0.237601 12.9027 -13.166 0.000459605 1 
95785 1 -1.13133 10.4595 -14.3343 0.000253408 1 
95786 1 -1.87665 11.1029 -11.629 0.000797832 1 
95787 1 -0.807501 8.60084 -10.7027 0.00135388 1 
95788 1 -1.54147 9.25546 -7.98025 0.00831701 1 
95789 1 -0.46401 6.76361 -7.05015 0.0220777 1 
95790 1 -1.17725 7.45116 -4.31773 0.745879 5 
95791 1 -0.0593621 4.86913 -3.53546 8.4689 5 
95792 1 -0.850649 4.29267 -1.03884 7.07996 5 
95848 1 -3.83525 11.1666 -13.7232 0.000326778 1 
95849 1 -4.7265 8.7271 -14.9083 0.000221978 1 
95850 1 -2.76743 8.66446 -12.8052 0.000647432 1 
95851 1 -5.46943 9.37243 -12.1978 0.000434425 1 
95852 1 -3.50683 9.31303 -10.0879 0.00279654 1 
95853 1 -4.40266 6.87256 -11.2889 0.00104654 1 
95854 1 -2.43814 6.81059 -9.17554 0.00245445 1 
95855 1 -5.14094 7.52464 -8.57925 0.00768655 1 
95856 1 -3.16583 7.4706 -6.46724 0.0553687 1 
95857 1 -4.0964 5.03304 -7.64464 0.097662 1 
95858 1 -2.1102 4.99122 -5.58998 0.114976 1 
95859 1 -4.85788 5.75145 -4.84917 3.05991 5 
95860 1 -2.76419 5.62084 -2.8751 10.0238 5 
95861 1 -3.8337 3.21318 -4.2592 4.33332 5 
95862 1 -3.14082 2.78192 -1.7087 5.76469 5 
268351 1 165.921 28.8587 -0.631062 0.233387 1 
95924 1 -7.42971 9.43491 -14.3047 0.000333177 1 
95926 1 -6.36379 6.93372 -13.396 0.00123501 1 
95927 1 -9.06721 7.63868 -12.8034 0.0013162 1 
95928 1 -7.10839 7.5824 -10.6796 0.00972895 1 
95930 1 -6.0449 5.07513 -9.79846 0.00571359 1 
95932 1 -6.78742 5.71186 -7.11582 0.0884989 1 
297463 2 -33.8219 23.5909 14.5017 0.000463183 1 
101676 1 -0.400843 17.8648 -12.9099 0.000524645 1 
101677 1 -0.0868076 15.9938 -9.32573 0.00354394 1 
101717 1 -2.36236 17.9195 -14.9929 0.000146456 1 
101719 1 -1.30034 15.4114 -14.0813 0.00027725 1 
101720 1 -4.0068 16.1148 -13.4723 0.000365409 1 
101721 1 -2.0469 16.0554 -11.3934 0.00105511 1 
101722 1 -2.94311 13.6079 -12.5531 0.000541363 1 
101723 1 -0.983305 13.5444 -10.4727 0.00162967 1 
101724 1 -3.68635 14.2515 -9.85243 0.00182558 1 
101725 1 -1.71929 14.1885 -7.77562 0.00465975 1 
101726 1 -2.61554 11.7514 -8.9163 0.00285047 1 
101727 1 -0.639346 11.6937 -6.83038 0.0113945 1 
101728 1 -3.33234 12.4208 -6.19436 0.0388274 1 
101729 1 -1.41699 12.3734 -4.06969 0.703516 1 
101730 1 -2.23764 9.95626 -5.2666 0.282285 1 
101731 1 -0.448719 9.96531 -3.05177 2.4779 5 
101732 1 -3.23242 10.8371 -2.2945 6.16254 5 
101733 1 -0.310131 10.5434 -0.225747 2.46374 5 
101734 1 -2.23931 8.55981 -1.21258 4.18451 5 
101780 1 -4.90149 13.6705 -14.6413 0.000215523 1 
101781 1 -7.60638 14.3759 -14.0308 0.000305222 1 
101782 1 -5.64753 14.3134 -11.9381 0.000676692 1 
101783 1 -6.53828 11.8744 -13.1126 0.00060035 1 
101784 1 -4.57855 11.8116 -11.0127 0.00109258 1 
101785 1 -7.27903 12.5216 -10.3968 0.00290553 1 
101786 1 -5.31323 12.4656 -8.29263 0.00716454 1 
101787 1 -6.20712 10.0196 -9.48264 0.00204076 1 
101788 1 -4.2349 9.97775 -7.35923 0.01936 1 
101789 1 -6.92543 10.6719 -6.7721 0.0644576 1 
101790 1 -4.92458 10.6858 -4.60738 0.57785 1 
101791 1 -5.85346 8.19241 -5.88013 0.137722 1 
101792 1 -3.78708 8.25651 -3.7906 6.21651 5 
101793 1 -6.51143 8.80377 -3.19355 10.9369 5 
101794 1 -4.67923 7.23848 -1.49873 8.89778 5 
101795 1 -6.94434 5.9172 -2.08299 7.46385 5 
101796 1 -3.46253 5.08339 -0.260747 4.992 5 
101797 1 -6.07846 5.87822 0.543264 0.152343 1 
101848 1 -11.2024 12.6437 -14.6077 0.000317804 1 
101849 1 -9.24175 12.5814 -12.5034 0.000907519 1 
101850 1 -10.1348 10.1422 -13.7024 0.00054271 1 
101851 1 -8.1711 10.0806 -11.5967 0.00116294 1 
101852 1 -10.8788 10.7876 -10.9948 0.00230353 1 
101853 1 -8.9042 10.7276 -8.89146 0.0106343 1 
101854 1 -9.80879 8.28017 -10.1066 0.0102105 1 
101855 1 -7.85079 8.23314 -7.93702 0.123283 1 
101856 1 -10.5497 8.91062 -7.44292 0.122135 1 
101857 1 -8.61906 8.95861 -5.14241 3.55043 5 
101859 1 -7.61629 6.41867 -4.58731 4.44798 5 
101861 1 -9.55543 6.74268 -1.3806 5.65268 5 
101920 1 -12.8413 10.8496 -13.0993 0.00125951 1 
101922 1 -11.7762 8.343 -12.2107 0.00094111 1 
101924 1 -12.529 8.98122 -9.52425 0.00521736 1 
107755 1 -2.52775 22.8783 -14.7241 0.000472346 1 
107756 1 -0.565866 22.828 -12.626 0.00208359 1 
107757 1 -1.46275 20.3731 -13.8149 0.00038693 1 
107758 1 -2.20479 21.0248 -11.1275 0.00160415 1 
107759 1 -0.245393 20.9794 -9.03265 0.010147 1 
107760 1 -1.14676 18.5132 -10.2298 0.0025413 1 
107761 1 -1.89673 19.1556 -7.55845 0.0124783 1 
107762 1 -0.829511 16.6233 -6.65085 0.0224635 1 
107763 1 -1.48264 17.2766 -3.98288 0.816333 1 
107764 1 -0.307009 14.7554 -3.02753 1.96369 5 
107765 1 -1.56842 15.4037 0.136289 0.983394 5 
107799 1 -4.16825 21.0751 -13.2149 0.000479849 1 
107800 1 -5.06896 18.6221 -14.3879 0.000225861 1 
107801 1 -3.10771 18.5661 -12.306 0.000653245 1 
107802 1 -5.81506 19.2647 -11.7019 0.00089332 1 
107803 1 -3.85347 19.2083 -9.6272 0.00281199 1 
107804 1 -4.75287 16.7564 -10.7804 0.0012656 1 
107805 1 -2.78999 16.6982 -8.70866 0.00407164 1 
107806 1 -5.4936 17.3948 -8.08705 0.00409198 1 
107807 1 -3.51943 17.3264 -6.01634 0.0360481 1 
107808 1 -4.41337 14.9059 -7.14605 0.00700675 1 
107809 1 -2.44588 14.8333 -5.05664 0.150674 1 
107810 1 -5.17059 15.567 -4.40189 0.443626 1 
107811 1 -2.91016 15.4793 -2.36437 5.7549 5 
107812 1 -4.18602 13.1606 -3.40411 1.7879 5 
107813 1 -1.63035 12.9978 -1.33436 6.37267 5 
107814 1 -4.16448 13.7239 -0.617664 3.36939 5 
107815 1 -2.78111 11.3887 0.603999 0.965863 5 
107853 1 -7.77636 19.3235 -13.7829 0.000349893 1 
107854 1 -8.67212 16.8792 -14.9502 0.00019951 1 
107855 1 -6.7131 16.8171 -12.8622 0.000487547 1 
107856 1 -9.41909 17.5198 -12.2508 0.000637493 1 
107857 1 -7.4584 17.4564 -10.1654 0.00167368 1 
107858 1 -8.35158 15.0185 -11.3222 0.00100452 1 
107859 1 -6.38953 14.9581 -9.22821 0.00231912 1 
107860 1 -9.09148 15.6656 -8.60321 0.00363581 1 
107861 1 -7.12015 15.6138 -6.5067 0.0167486 1 
107862 1 -8.01306 13.1798 -7.66752 0.0223908 1 
107863 1 -6.01666 13.1634 -5.58109 0.210702 1 
107864 1 -8.7382 13.8706 -4.91048 0.39986 1 
107865 1 -6.97883 13.9907 -2.63853 5.96043 5 
107866 1 -7.55814 11.4453 -4.12764 6.16371 5 
107867 1 -6.00756 11.6671 -1.62249 6.82683 5 
107868 1 -8.48514 10.3723 -1.87893 8.50455 5 
107869 1 -7.24922 8.22854 -0.631349 4.92422 5 
107911 1 -11.3781 17.5842 -14.3411 0.00028782 1 
107913 1 -10.3108 15.0816 -13.4207 0.000434302 1 
107914 1 -13.0144 15.7891 -12.8107 0.000700955 1 
107915 1 -11.0538 15.7248 -10.708 0.00146871 1 
107916 1 -11.9459 13.2881 -11.8968 0.000696568 1 
107917 1 -9.98208 13.2279 -9.78498 0.00413828 1 
107918 1 -12.6841 13.9346 -9.18066 0.00258581 1 
107919 1 -10.7096 13.8895 -7.0547 0.0232497 1 
107920 1 -11.6232 11.4312 -8.28575 0.0194382 1 
107921 1 -9.62233 11.3833 -6.20944 0.146577 1 
107922 1 -12.3547 12.1183 -5.59892 0.10928 1 
107923 1 -10.3078 11.9936 -3.54475 8.52329 5 
107924 1 -11.3792 9.58719 -4.92985 4.77759 5 
107925 1 -10.7555 9.08488 -2.41911 7.97666 5 
107926 1 -13.3745 9.93768 -1.70453 5.81856 5 
107927 1 -9.88185 9.06936 0.180198 0.163342 1 
296034 2 -35.6493 24.9283 1.64338 0.0589308 1 
107974 1 -14.9741 15.8532 -14.913 0.000250551 1 
107976 1 -13.9066 13.3515 -14.0036 0.000421899 1 
107977 1 -16.6111 14.0605 -13.3992 0.00126611 1 
107978 1 -14.6493 13.9976 -11.2934 0.00114904 1 
107979 1 -15.5459 11.556 -12.5034 0.000988259 1 
107980 1 -13.5886 11.4971 -10.3856 0.00885235 1 
107981 1 -16.2904 12.2001 -9.80285 0.00544067 1 
107982 1 -14.341 12.1555 -7.65324 0.0876322 1 
107984 1 -13.3183 9.61413 -6.86975 0.0671894 1 
107986 1 -14.0726 10.3432 -4.26392 4.32666 5 
113927 1 -0.756833 27.7768 -12.376 0.00121724 1 
113928 1 -0.423172 25.9311 -8.70932 0.0124196 1 
113929 1 -0.106048 24.1074 -4.91023 1.43564 5 
113949 1 -2.70948 27.8318 -14.468 0.000626303 1 
113951 1 -1.63801 25.33 -13.5414 0.00159469 1 
113952 1 -4.33647 26.0356 -12.9397 0.001729 1 
113953 1 -2.37972 25.9867 -10.8229 0.00962882 1 
113954 1 -3.26666 23.5323 -12.0276 0.00202107 1 
113955 1 -1.3029 23.4845 -9.9191 0.00965452 1 
113956 1 -4.00457 24.1837 -9.33591 0.011467 1 
113957 1 -2.0419 24.1296 -7.21433 0.0845074 1 
113958 1 -2.9524 21.67 -8.4536 0.00949878 1 
113959 1 -1.01132 21.6349 -6.35006 0.0841166 1 
113960 1 -3.73486 22.2917 -5.80456 0.0933741 1 
113961 1 -1.87312 22.238 -3.68863 6.73506 5 
113962 1 -2.64041 19.7951 -4.89621 0.224063 1 
113963 1 -0.909025 19.6936 -2.73216 6.54749 2 
113964 1 -3.63814 20.367 -2.05812 6.12424 2 
113965 1 -0.400616 19.3536 0.0615218 0.189143 1 
113966 1 -2.60931 17.8788 -0.983128 5.56175 5 
113992 1 -5.23163 23.5819 -14.124 0.00045945 1 
113993 1 -7.93875 24.2839 -13.527 0.000512852 1 
113994 1 -5.97214 24.2311 -11.4391 0.00193502 1 
113995 1 -6.87621 21.7742 -12.6171 0.000656511 1 
113996 1 -4.91222 21.7215 -10.5358 0.00231205 1 
113997 1 -7.62336 22.4133 -9.94463 0.00271087 1 
113998 1 -5.66429 22.3565 -7.8734 0.00964535 1 
113999 1 -6.56082 19.9012 -9.02288 0.00348611 1 
114000 1 -4.59952 19.8326 -6.95837 0.0144473 1 
114001 1 -7.29992 20.5246 -6.34492 0.0272083 1 
114002 1 -5.30391 20.452 -4.30577 0.575168 1 
114003 1 -6.22495 18.023 -5.38218 0.091476 1 
114004 1 -4.12532 17.9664 -3.3494 1.40107 5 
114005 1 -6.7442 18.6634 -2.68736 2.35117 5 
114006 1 -5.32314 18.6057 -0.244149 1.47153 5 
114007 1 -5.487 16.2018 -1.68234 6.10549 5 
114008 1 -4.21873 16.183 0.903346 0.62429 1 
114038 1 -8.83925 21.8315 -14.6989 0.00023825 1 
114039 1 -11.5485 22.5338 -14.0948 0.00039054 1 
114040 1 -9.58649 22.4727 -12.0174 0.000925413 1 
114041 1 -10.4844 20.0253 -13.1757 0.000521895 1 
114042 1 -8.5233 19.9623 -11.0963 0.00127447 1 
114043 1 -11.2312 20.6632 -10.4846 0.00178406 1 
114044 1 -9.26641 20.5973 -8.41193 0.0045702 1 
114045 1 -10.1622 18.1601 -9.54766 0.00222553 1 
114046 1 -8.19385 18.0972 -7.46349 0.00409985 1 
114047 1 -10.8871 18.8128 -6.83664 0.0125429 1 
114048 1 -8.93561 18.7463 -4.73903 0.247126 1 
114049 1 -9.81474 16.3291 -5.87507 0.0622173 1 
114050 1 -7.92854 16.3162 -3.75261 1.03541 1 
114051 1 -10.7019 17.09 -3.0488 2.56668 5 
114052 1 -8.07429 16.853 -1.02518 6.36381 5 
114053 1 -9.83384 14.6878 -2.03949 7.56119 5 
114054 1 -6.61499 14.564 0.238925 1.40855 5 
114055 1 -9.17985 15.3758 1.0128 0.708367 5 
114090 1 -15.1508 20.7954 -14.6503 0.000298529 1 
114091 1 -13.1922 20.7293 -12.5646 0.000701633 1 
114092 1 -14.0834 18.2909 -13.7306 0.000393883 1 
114093 1 -12.1241 18.2253 -11.6369 0.000889803 1 
114094 1 -14.8277 18.9338 -11.0209 0.00126569 1 
114095 1 -12.8642 18.8713 -8.92455 0.00309635 1 
114096 1 -13.7544 16.4363 -10.0938 0.00291151 1 
114097 1 -11.7888 16.3786 -7.98559 0.00844449 1 
114098 1 -14.4844 17.1002 -7.36466 0.0191559 1 
114099 1 -12.4872 17.0767 -5.27 0.291363 1 
114100 1 -13.4131 14.5962 -6.47345 0.0485284 1 
114101 1 -11.4274 14.577 -4.32109 0.756866 5 
114102 1 -14.0407 15.379 -3.79107 6.15234 5 
114103 1 -12.493 15.69 -1.20498 4.14677 5 
114104 1 -13.0206 12.7527 -2.88224 9.8799 5 
114105 1 -11.0826 11.454 -1.03793 7.12782 5 
114106 1 -13.7005 12.238 -0.255363 4.95602 5 
114144 1 -16.7874 19 -13.1189 0.000661069 1 
114145 1 -17.6778 16.5622 -14.3083 0.000348875 1 
114146 1 -15.7174 16.4975 -12.2029 0.000494019 1 
114147 1 -18.4193 17.2079 -11.5999 0.00115409 1 
114148 1 -16.4559 17.1442 -9.4871 0.00194469 1 
114149 1 -17.3554 14.7089 -10.6825 0.0100332 1 
114150 1 -15.3877 14.6496 -8.58384 0.00794271 1 
114151 1 -18.0972 15.3603 -7.93856 0.124475 1 
114152 1 -16.1016 15.3192 -5.88113 0.13009 1 
114153 1 -17.0315 12.837 -7.12262 0.0839223 1 
114154 1 -15.1011 12.8739 -4.86973 2.95316 5 
114155 1 -17.8562 13.5456 -4.59271 4.65673 5 
114156 1 -17.2057 13.0507 -2.08158 7.47692 5 
261897 1 176.169 21.7287 -0.631029 0.231131 1 
114202 1 -20.3826 17.2718 -13.7041 0.00053382 1 
296276 2 -23.5775 16.4599 14.5072 0.000434482 1 
114204 1 -19.3145 14.7671 -12.8047 0.00127395 1 
114205 1 -22.0224 15.4741 -12.2099 0.000895145 1 
114206 1 -20.0551 15.4095 -10.1067 0.00992435 1 
120216 1 -0.186977 32.082 -14.8652 0.0006951 1 
120217 1 -2.89497 32.7872 -14.2455 0.000755219 1 
120218 1 -0.94416 32.7362 -12.1813 0.00184408 1 
120219 1 -1.82778 30.281 -13.3129 0.000942938 1 
120220 1 -2.58035 30.9329 -10.6087 0.00275904 1 
120221 1 -0.628702 30.8802 -8.54233 0.00849317 1 
120222 1 -1.50417 28.427 -9.65853 0.00346508 1 
120223 1 -2.23806 29.0691 -6.9263 0.0237693 1 
120224 1 -0.268584 29.0429 -4.82923 0.158584 1 
120225 1 -1.15443 26.5666 -5.96216 0.157932 1 
120226 1 -1.80123 27.0603 -3.2268 4.93846 5 
120227 1 -0.241405 25.0398 -1.74035 5.01937 5 
120228 1 -1.87599 24.0286 0.637197 1.3127 5 
120239 1 -6.48365 31.0437 -14.7782 0.000587952 1 
120240 1 -4.53096 30.988 -12.6918 0.00107853 1 
120241 1 -5.411 28.5398 -13.856 0.00118719 1 
120242 1 -3.45539 28.4855 -11.7597 0.00230338 1 
120243 1 -6.15511 29.1946 -11.1437 0.00755505 1 
120244 1 -4.1985 29.1363 -9.03791 0.0120447 1 
120245 1 -5.07357 26.6881 -10.2386 0.00954604 1 
120246 1 -3.12346 26.6413 -8.07598 0.0780114 1 
120247 1 -5.81893 27.3285 -7.54945 0.0692543 1 
120248 1 -3.88411 27.3032 -5.27134 1.35144 5 
120249 1 -4.78345 24.828 -6.67514 0.0606186 1 
120250 1 -2.90545 24.7552 -4.61994 4.12317 5 
120251 1 -5.62365 25.4315 -4.00751 7.49578 5 
120252 1 -2.73876 24.2642 -1.98915 12.24 5 
120253 1 -4.72213 22.846 -3.08539 6.49966 2 
120254 1 -1.45056 21.8612 -0.993588 3.4837 5 
120255 1 -4.19746 22.5263 -0.281555 0.283659 1 
120271 1 -8.11227 29.2469 -13.2513 0.00144401 1 
120272 1 -9.00486 26.7929 -14.4346 0.000437467 1 
120273 1 -7.03936 26.7401 -12.343 0.00181322 1 
120274 1 -9.74814 27.442 -11.7523 0.00174607 1 
120275 1 -7.78155 27.3895 -9.65844 0.00921701 1 
120276 1 -8.68473 24.9284 -10.853 0.00205791 1 
120277 1 -6.72362 24.8719 -8.77354 0.0074575 1 
120278 1 -9.44032 25.5613 -8.19542 0.0085259 1 
120279 1 -7.51018 25.4893 -6.12696 0.0739697 1 
120280 1 -8.37531 23.0356 -7.28352 0.0135332 1 
120281 1 -6.42669 22.9973 -5.22658 0.220977 1 
120282 1 -9.0954 23.6517 -4.6331 0.471234 1 
120283 1 -7.40861 23.567 -2.39978 6.28002 2 
120284 1 -7.92554 21.164 -3.67681 1.14044 1 
120285 1 -6.38316 21.0624 -1.34154 5.59054 5 
120286 1 -9.10396 21.7797 -0.616184 1.72883 5 
120287 1 -8.02795 19.3223 0.493818 0.904363 5 
120307 1 -11.7133 27.4977 -13.834 0.000502785 1 
120309 1 -10.6493 24.9849 -12.9297 0.000693888 1 
120310 1 -13.3608 25.6866 -12.327 0.00103591 1 
120311 1 -11.3989 25.6238 -10.2605 0.00290315 1 
120312 1 -12.2972 23.1723 -11.4119 0.0013757 1 
120313 1 -10.3349 23.1076 -9.34401 0.00357753 1 
120314 1 -13.0434 23.8063 -8.73207 0.00490467 1 
120315 1 -11.0779 23.7304 -6.67166 0.0217637 1 
120316 1 -11.9682 21.3026 -7.78866 0.00471556 1 
120317 1 -9.99798 21.22 -5.71425 0.0660511 1 
120318 1 -12.6992 21.9423 -5.06874 0.166926 1 
120319 1 -10.5507 21.8638 -3.03386 2.03822 5 
120320 1 -11.6712 19.4919 -4.07323 0.744479 1 
120321 1 -9.3346 19.3698 -2.04014 5.83747 5 
120322 1 -11.876 20.1103 -1.33535 6.32241 5 
120323 1 -10.5528 17.6674 -0.219852 2.40415 5 
120347 1 -15.3211 25.7488 -14.4004 0.000374256 1 
120349 1 -14.2577 23.2376 -13.4862 0.000567517 1 
120350 1 -16.9653 23.9432 -12.8727 0.000698556 1 
120351 1 -15.0065 23.8755 -10.7975 0.00184421 1 
120352 1 -15.8984 21.4364 -11.9485 0.000895165 1 
120353 1 -13.9372 21.3687 -9.86593 0.00230445 1 
120354 1 -16.6416 22.0797 -9.23865 0.00277933 1 
120355 1 -14.6654 22.0194 -7.16001 0.00849477 1 
120356 1 -15.5639 19.5859 -8.30081 0.00768869 1 
120357 1 -13.582 19.5377 -6.20242 0.0443461 1 
120358 1 -16.2666 20.2833 -5.58997 0.222976 1 
120359 1 -14.4451 20.2797 -3.40711 1.8947 5 
120360 1 -15.1753 17.8074 -4.61178 0.597477 1 
120361 1 -13.4914 17.9595 -2.29461 6.21826 5 
120362 1 -16.2677 18.7953 -1.61682 6.72198 5 
120363 1 -13.0316 18.5083 0.604832 0.920047 5 
120364 1 -14.9388 14.3733 -1.49292 8.9699 5 
120392 1 -18.9228 24.0094 -14.9555 0.000264307 1 
120394 1 -17.8565 21.5033 -14.0376 0.000378308 1 
120395 1 -20.5604 22.2125 -13.4239 0.000460181 1 
120396 1 -18.6024 22.1458 -11.329 0.00113155 1 
120397 1 -19.4908 19.7101 -12.5073 0.000923023 1 
120398 1 -17.529 19.6466 -10.4031 0.00291538 1 
120399 1 -20.2309 20.3577 -9.78798 0.00395118 1 
120400 1 -18.2636 20.3047 -7.67274 0.0216858 1 
120401 1 -19.1526 17.8554 -8.89276 0.00995795 1 
120402 1 -17.1764 17.7963 -6.77368 0.0639661 1 
120403 1 -19.871 18.5111 -6.20593 0.145042 1 
120404 1 -17.8064 18.5718 -4.12522 6.1675 5 
120405 1 -18.8679 16.0838 -5.13904 3.61027 5 
120406 1 -16.7645 15.9321 -3.18737 10.8827 5 
120407 1 -21.0147 16.1894 -2.41317 8.04596 5 
120408 1 -17.5237 15.3495 -0.627328 5.04822 5 
120410 1 -16.337 13.0208 0.54958 0.149316 1 
120444 1 -21.4507 19.7747 -14.6093 0.000310549 1 
120445 1 -24.1538 20.4852 -14.0028 0.000404899 1 
120446 1 -22.194 20.4205 -11.8975 0.000668256 1 
120447 1 -23.0882 17.982 -13.0987 0.00132885 1 
120448 1 -21.126 17.9184 -10.9958 0.00228289 1 
120449 1 -23.8344 18.632 -10.3832 0.00993567 1 
120450 1 -21.8686 18.565 -8.28519 0.0182854 1 
120451 1 -22.773 16.1146 -9.52291 0.0051492 1 
120452 1 -20.7949 16.0421 -7.43983 0.117741 1 
120453 1 -23.5579 16.753 -6.86907 0.0586012 1 
120454 1 -21.6254 16.7159 -4.9211 4.78257 5 
297016 2 -45.8976 32.0581 1.64316 0.0590679 1 
120501 1 -25.7915 18.6908 -12.5013 0.00104153 1 
126568 1 -0.466632 34.1109 -4.83577 0.0231867 1 
126569 1 -0.106373 32.4778 -1.14508 0.497232 1 
126571 1 -2.00507 35.2465 -13.1136 0.00142861 1 
126572 1 -3.65205 33.4396 -11.5539 0.00207672 1 
126573 1 -1.70151 33.3939 -9.4993 0.00563963 1 
126574 1 -4.40779 34.0926 -8.86172 0.00810174 1 
126575 1 -2.45277 34.0676 -6.82252 0.0263307 1 
126576 1 -3.32807 31.5835 -7.89447 0.0122248 1 
126577 1 -1.35821 31.5608 -5.86113 0.056337 1 
126578 1 -4.05625 32.2418 -5.16681 0.17544 1 
126579 1 -2.02897 32.3927 -3.23341 0.215739 1 
126580 1 -2.90455 29.7388 -4.20102 0.836232 5 
126581 1 -1.00433 29.8676 -2.11253 5.78178 5 
126582 1 -3.54819 30.7706 -1.58087 8.89715 5 
126583 1 -2.46409 26.5733 -0.461752 10.2599 5 
126587 1 -5.60181 33.4934 -13.623 0.000931253 1 
126588 1 -8.30728 34.2006 -12.9974 0.00142282 1 
126589 1 -6.35827 34.1451 -10.9206 0.00286555 1 
126590 1 -7.23276 31.6973 -12.0717 0.0022718 1 
126591 1 -5.28167 31.6371 -9.97947 0.00325659 1 
126592 1 -7.97945 32.3478 -9.35125 0.0124007 1 
126593 1 -6.02024 32.2768 -7.25366 0.0175608 1 
126594 1 -6.89979 29.8459 -8.40449 0.0667834 1 
126595 1 -4.92669 29.7668 -6.29751 0.157748 1 
126596 1 -7.64788 30.4918 -5.61604 1.16106 5 
126597 1 -5.58459 30.2255 -3.56795 4.89875 5 
126598 1 -6.67048 27.9399 -4.95764 5.28656 5 
126599 1 -4.00187 28.1637 -2.04753 5.18622 5 
126600 1 -6.51304 27.452 -2.32689 12.0943 5 
126601 1 -5.64378 27.2057 0.301033 1.7396 5 
126602 1 -5.23438 25.078 -1.31771 3.5519 5 
126610 1 -9.18745 31.7527 -14.1619 0.00111471 1 
126611 1 -11.89 32.4623 -13.5457 0.00247258 1 
126612 1 -9.93591 32.408 -11.4486 0.00568002 1 
126613 1 -10.8172 29.9547 -12.6468 0.0015462 1 
126614 1 -8.85261 29.8994 -10.5524 0.00863588 1 
126615 1 -11.5634 30.6073 -9.95442 0.00613278 1 
126616 1 -9.59783 30.5372 -7.86698 0.0611403 1 
126617 1 -10.5017 28.0826 -9.08815 0.00711832 1 
126618 1 -8.56002 28.0276 -7.00144 0.0509459 1 
126619 1 -11.2883 28.6974 -6.44334 0.0644627 1 
126620 1 -9.37612 28.6258 -4.3415 6.49869 5 
126621 1 -10.2111 26.2001 -5.55038 0.182178 1 
126622 1 -8.4885 26.0394 -3.42618 6.63779 2 
126623 1 -11.1755 26.7599 -2.74757 6.47299 2 
126624 1 -7.98653 25.7047 -0.623522 0.326856 1 
126625 1 -10.1539 24.253 -1.69754 5.68871 5 
126626 1 -6.85934 23.2917 0.396476 0.141667 1 
126638 1 -12.7793 30.0084 -14.735 0.000469438 1 
126639 1 -15.4853 30.7147 -14.1303 0.000426476 1 
126640 1 -13.5233 30.6621 -12.0441 0.00226206 1 
126641 1 -14.4227 28.2024 -13.2309 0.000669178 1 
126642 1 -12.4611 28.1444 -11.1586 0.00240927 1 
126643 1 -15.1716 28.8469 -10.5567 0.00306561 1 
126644 1 -13.2174 28.7812 -8.49937 0.0125859 1 
126645 1 -14.1115 26.3225 -9.65534 0.00411838 1 
126646 1 -12.1542 26.2459 -7.60359 0.0135553 1 
126647 1 -14.8585 26.9442 -6.98823 0.0210927 1 
126648 1 -12.8896 26.8536 -4.95507 0.366796 1 
126649 1 -13.7763 24.4256 -6.04077 0.0454548 1 
126650 1 -11.7258 24.3649 -4.00645 0.930436 1 
126651 1 -14.3626 25.0668 -3.36339 1.62282 5 
126652 1 -12.8737 24.9757 -0.974833 5.59765 5 
126653 1 -13.1537 22.5838 -2.37204 5.7705 5 
126654 1 -11.8198 22.5158 0.138638 0.939756 5 
126655 1 -14.4751 23.2936 0.913117 0.567076 1 
126670 1 -19.0912 28.9659 -14.6999 0.000274238 1 
126671 1 -17.1314 28.9059 -12.6252 0.000841433 1 
126672 1 -18.029 26.454 -13.7899 0.000488231 1 
126673 1 -16.0703 26.3897 -11.7174 0.00134986 1 
126674 1 -18.7773 27.0935 -11.1026 0.00160612 1 
126675 1 -16.8174 27.0254 -9.03884 0.00476302 1 
126676 1 -17.7116 24.5819 -10.1762 0.00208735 1 
126677 1 -15.7483 24.5114 -8.1046 0.0053376 1 
126678 1 -18.4445 25.223 -7.47218 0.00414072 1 
126679 1 -16.4736 25.1442 -5.39274 0.0992216 1 
126680 1 -17.3701 22.737 -6.51526 0.0175043 1 
126681 1 -15.4254 22.6833 -4.41099 0.47675 1 
126682 1 -18.1783 23.4433 -3.75413 1.08726 1 
126683 1 -15.727 23.313 -1.68724 6.2201 5 
126684 1 -17.2341 21.1153 -2.64101 5.96022 5 
126685 1 -14.411 20.8398 -0.61577 3.23309 5 
126686 1 -16.8675 21.6797 0.234659 1.32279 5 
126706 1 -20.7355 27.1604 -13.1759 0.000594793 1 
126707 1 -21.6277 24.7179 -14.3418 0.000311882 1 
126708 1 -19.6705 24.6507 -12.2557 0.000765812 1 
126709 1 -22.3733 25.3611 -11.6358 0.000903333 1 
126710 1 -20.4131 25.2923 -9.55078 0.0024416 1 
126711 1 -21.3031 22.8571 -10.7102 0.00142344 1 
126712 1 -19.3417 22.7934 -8.60884 0.00374627 1 
126713 1 -22.0367 23.512 -7.9862 0.00850522 1 
126714 1 -20.0616 23.4584 -5.88044 0.065823 1 
126715 1 -20.9579 21.0194 -7.05546 0.0221795 1 
126716 1 -18.984 20.9984 -4.91613 0.403446 1 
126717 1 -21.6685 21.7096 -4.32017 0.78012 5 
126718 1 -20.078 21.8326 -2.03138 7.28885 5 
126719 1 -20.5508 19.1299 -3.53606 8.52067 5 
126720 1 -18.7482 17.492 -1.88228 8.47717 5 
126721 1 -21.3434 18.5572 -1.03801 7.0675 5 
126722 1 -20.1551 16.1727 0.180587 0.205272 1 
126746 1 -24.3308 25.4276 -13.7273 0.000360333 1 
126747 1 -25.2211 22.9883 -14.9109 0.000230899 1 
126748 1 -23.2625 22.9237 -12.8101 0.000686395 1 
126749 1 -25.9635 23.6346 -12.1995 0.000442265 1 
126750 1 -24.0014 23.5729 -10.0917 0.00278755 1 
126751 1 -24.8956 21.1333 -11.2915 0.00113719 1 
126752 1 -22.9313 21.0691 -9.17949 0.00227882 1 
126753 1 -25.6323 21.7869 -8.58023 0.00802645 1 
126754 1 -23.6587 21.7304 -6.4678 0.0547806 1 
126755 1 -24.585 19.2936 -7.64716 0.0974701 1 
126756 1 -22.6 19.2501 -5.59188 0.11449 1 
126757 1 -25.3454 20.0137 -4.84866 3.13777 5 
126758 1 -23.2547 19.8828 -2.87421 9.99362 5 
126759 1 -24.3189 17.4736 -4.26065 4.35532 5 
126760 1 -23.6294 17.0435 -1.70874 5.7683 5 
250984 1 186.412 14.6011 -0.629513 0.230318 1 
126790 1 -27.9233 23.6984 -14.3046 0.000329156 1 
126792 1 -26.857 21.196 -13.3966 0.00129673 1 
126793 1 -29.5593 21.9033 -12.8015 0.00131366 1 
126794 1 -27.6002 21.8463 -10.6788 0.0104308 1 
126796 1 -26.5348 19.3373 -9.80013 0.0059589 1 
126798 1 -27.2739 19.9757 -7.11826 0.0914412 1 
295807 2 -13.3275 9.32964 14.5124 0.000493021 1 
132963 1 -1.16755 34.9311 -2.17593 0.0599531 1 
132964 1 -5.14552 34.7684 -6.18621 0.0578139 1 
132965 1 -3.17633 34.8189 -4.16471 0.0540058 1 
132966 1 -5.82538 35.5918 -3.57054 0.211724 1 
132967 1 47.3308 0.0199955 -1.49747 0.437019 1 
132968 1 -4.81129 33.0577 -2.46806 5.83841 5 
132969 1 -2.7665 33.339 -0.578817 1.16158 5 
132970 1 -5.64201 34.3124 0.428625 7.68693 5 
132971 1 -9.06253 34.8507 -10.2813 0.00500753 1 
132972 1 -7.11482 34.7944 -8.20726 0.0132436 1 
132973 1 -9.81371 35.493 -7.5423 0.0210142 1 
132974 1 -7.86083 35.4487 -5.48053 0.158416 1 
132975 1 -8.71462 32.978 -6.60812 0.119283 1 
132976 1 -6.70594 32.932 -4.54252 0.822141 5 
132977 1 -9.42031 33.5092 -3.8734 4.30449 5 
132978 1 -7.37076 33.9478 -1.96606 8.52629 5 
132979 1 -7.79644 31.3434 -2.42028 5.435 5 
132980 1 -6.27451 29.7443 -0.812512 10.2808 5 
132981 1 -9.43836 30.3895 -0.0525812 1.66413 5 
132982 1 -12.9601 34.9646 -14.465 0.000852564 1 
132983 1 -11.0097 34.9086 -12.372 0.00181806 1 
132984 1 -13.7077 35.619 -11.752 0.00322953 1 
132985 1 -11.76 35.5581 -9.64574 0.00549308 1 
132986 1 -12.6363 33.1204 -10.824 0.0158505 1 
132987 1 -10.6844 33.0593 -8.71205 0.0340176 1 
132988 1 -13.3837 33.7782 -8.06933 0.107338 1 
132989 1 -11.4387 33.7022 -5.93887 0.278681 1 
132990 1 -12.3341 31.2493 -7.2707 0.0264616 1 
132991 1 -10.4119 31.1461 -5.27046 3.80821 5 
132992 1 -13.1363 31.8728 -4.60168 5.23129 5 
132993 1 -10.2828 30.6052 -2.65825 12.8268 5 
132994 1 -12.2503 29.2312 -3.77579 7.03062 2 
132995 1 -9.01252 28.2476 -1.65408 3.51892 5 
132996 1 -11.764 28.8665 -0.96559 0.338551 1 
132997 1 -10.6425 26.4632 0.0509746 0.152057 1 
133001 1 -14.5899 33.1701 -12.9396 0.00235243 1 
133002 1 -17.2932 33.8775 -12.3348 0.00175895 1 
133003 1 -15.3303 33.8248 -10.2342 0.0118295 1 
133004 1 -16.2302 31.3652 -11.4462 0.0019185 1 
133005 1 -14.2712 31.3132 -9.35927 0.0118354 1 
133006 1 -16.9812 32.006 -8.77748 0.0121367 1 
133007 1 -15.0368 31.9566 -6.6864 0.118008 1 
133008 1 -15.925 29.4819 -7.89458 0.0138562 1 
133009 1 -13.9987 29.4159 -5.85905 0.164444 1 
133010 1 -16.6812 30.0925 -5.24334 0.216979 1 
133011 1 -14.9381 29.959 -3.08519 6.61344 2 
133012 1 -15.5277 27.5735 -4.32438 0.715005 1 
133013 1 -13.9182 27.4473 -2.0521 5.89898 2 
133014 1 -16.6434 28.1712 -1.33607 5.60699 5 
133015 1 -15.5984 25.7048 -0.229937 1.26863 5 
133021 1 -19.2551 33.93 -14.4252 0.00043956 1 
133023 1 -18.1923 31.4202 -13.5254 0.000495901 1 
133024 1 -20.8995 32.1253 -12.9187 0.000635082 1 
133025 1 -18.9392 32.0682 -10.8463 0.00284059 1 
133026 1 -19.8395 29.6098 -12.0156 0.001094 1 
133027 1 -17.8803 29.5456 -9.95176 0.00351788 1 
133028 1 -20.588 30.2482 -9.33795 0.00459706 1 
133029 1 -18.6321 30.1654 -7.28928 0.0168483 1 
133030 1 -19.5193 27.729 -8.41575 0.00539335 1 
133031 1 -17.5505 27.6439 -6.35639 0.0298257 1 
133032 1 -20.2465 28.3538 -5.71406 0.0700871 1 
133033 1 -18.1692 28.2726 -3.6882 1.26649 5 
133034 1 -19.1835 25.8707 -4.74586 0.2626 1 
133035 1 -16.979 25.7835 -2.69746 2.62338 5 
133036 1 -19.5738 26.4987 -2.04393 5.90246 5 
133037 1 -18.2892 26.445 0.505295 0.803865 1 
133038 1 -18.3089 23.9857 -1.01992 6.1973 5 
133048 1 -22.8594 32.1822 -14.9975 0.000166377 1 
133050 1 -21.798 29.6718 -14.0889 0.000359124 1 
133051 1 -24.5037 30.3777 -13.4756 0.000422787 1 
133052 1 -22.5457 30.3151 -11.4005 0.0012843 1 
133053 1 -23.4401 27.8684 -12.5585 0.000638669 1 
133054 1 -21.4819 27.801 -10.4817 0.00194488 1 
133055 1 -24.183 28.5122 -9.85569 0.00199605 1 
133056 1 -22.2165 28.4448 -7.78161 0.00508756 1 
133057 1 -23.1116 26.0099 -8.92115 0.00307189 1 
133058 1 -21.1352 25.9478 -6.83823 0.0125523 1 
133059 1 -23.8258 26.681 -6.1969 0.0395194 1 
133060 1 -21.9121 26.6315 -4.07165 0.740151 1 
133061 1 -22.7309 24.2144 -5.27226 0.296871 1 
133062 1 -20.9506 24.2233 -3.05423 2.62429 5 
133063 1 -23.7299 25.1018 -2.29276 6.17514 5 
133064 1 -20.7974 24.7976 -0.226027 2.3038 5 
133065 1 -22.741 22.8247 -1.206 3.99865 5 
133066 1 -19.4346 22.4959 1.00397 0.654119 5 
133082 1 -25.3971 27.9332 -14.6439 0.000243623 1 
133083 1 -28.1007 28.6414 -14.03 0.000306023 1 
133084 1 -26.1429 28.5771 -11.9393 0.000703239 1 
133085 1 -27.0326 26.1381 -13.1133 0.000606182 1 
133086 1 -25.0738 26.0732 -11.0153 0.00111816 1 
133087 1 -27.7725 26.7864 -10.3961 0.00278523 1 
133088 1 -25.8074 26.728 -8.29295 0.00719473 1 
133089 1 -26.7005 24.2829 -9.48242 0.00189372 1 
133090 1 -24.7291 24.2384 -7.36116 0.0189214 1 
133091 1 -27.4191 24.9351 -6.76848 0.0662702 1 
133092 1 -25.4163 24.947 -4.6086 0.592607 1 
133093 1 -26.3448 22.4559 -5.87683 0.14204 1 
133094 1 -24.2764 22.5196 -3.78601 6.23466 5 
133095 1 -27.0013 23.066 -3.18559 10.9478 5 
133096 1 -25.1825 21.4908 -1.50237 8.81714 5 
133097 1 -27.4507 20.1702 -2.08322 7.5271 5 
133098 1 -23.9578 19.3445 -0.260601 4.99652 5 
133099 1 -26.5828 20.1337 0.541776 0.155164 1 
133120 1 -31.6947 26.9107 -14.6045 0.000295148 1 
133121 1 -29.7346 26.8478 -12.5014 0.000874591 1 
133122 1 -30.6271 24.408 -13.7001 0.000523899 1 
133123 1 -28.6638 24.3456 -11.5955 0.00115121 1 
133124 1 -31.3699 25.0554 -10.9917 0.00228059 1 
133125 1 -29.3959 24.9937 -8.88827 0.0101536 1 
133126 1 -30.2993 22.5466 -10.1036 0.0102981 1 
133127 1 -28.341 22.4986 -7.93386 0.128276 1 
133128 1 -31.0387 23.179 -7.43712 0.121028 1 
133129 1 -29.1121 23.2212 -5.13115 3.67865 5 
133131 1 -28.1016 20.6808 -4.59023 4.66909 5 
133133 1 -30.0789 20.9656 -1.37194 6.00971 5 
133162 1 -33.3324 25.1176 -13.0951 0.0013502 1 
133164 1 -32.2669 22.6099 -12.207 0.00094743 1 
133166 1 -33.0175 23.2507 -9.52046 0.00534212 1 
139376 1 -10.1876 32.9472 -1.21451 10.2019 5 
139377 1 -14.1331 34.422 -5.19923 1.81531 5 
139378 1 -12.0231 34.2036 -3.07778 8.36914 5 
139379 1 -14.2217 35.4068 -2.00105 5.27387 5 
139380 1 -13.1966 33.4728 -0.426195 6.62273 5 
139381 1 -12.7963 31.3611 -1.99139 6.35871 5 
139382 1 -12.1169 31.1133 0.663921 0.258463 1 
139383 1 -18.0335 34.5296 -9.63734 0.00892054 1 
139384 1 -16.0655 34.4607 -7.52779 0.113487 1 
139385 1 -18.8132 35.1728 -6.96517 0.0257534 1 
139386 1 -16.9187 35.0564 -4.94496 5.54917 5 
139387 1 -17.7685 32.615 -6.13635 0.0916488 1 