ITEM: TIMESTEP
0
ITEM: NUMBER OF ATOMS
3228
ITEM: BOX BOUNDS xy xz yz pp pp ss
0.0000000000000000e+00 4.8038444544000001e+01 8.7722376989999997e+00
0.0000000000000000e+00 4.6054129519000000e+01 0.0000000000000000e+00
-1.5000281746153547e+02 1.6815085301598273e+02 0.0000000000000000e+00
ITEM: ATOMS id type x y z c_csym c_cna 
12035 1 3.90965 2.16828 -13.0844 0.000298095 1 
12036 1 1.19026 1.26095 -13.1527 0.000131325 1 
12037 1 0.978679 1.65946 -10.3319 0.000506797 1 
12085 1 4.74498 4.32568 -14.7656 0.000100445 1 
12087 1 2.02709 3.41835 -14.8391 9.2694e-05 1 
12088 1 2.65369 5.97365 -13.7008 0.000181915 1 
12089 1 1.81684 3.81613 -12.0199 0.000401257 1 
12090 1 39.2026 5.06446 -13.7699 0.000109008 1 
12091 1 38.9913 5.46292 -10.946 0.000450285 1 
12143 1 40.6649 9.77649 -14.3112 9.2429e-05 1 
12144 1 39.8284 7.62095 -12.6287 0.000212628 1 
12199 1 39.4115 13.5745 -14.9223 8.30347e-05 1 
12651 1 11.4302 2.333 -13.9843 5.89256e-05 1 
12653 1 8.71644 1.42665 -14.0635 3.36333e-05 1 
12654 1 9.34225 3.9783 -12.9228 6.86322e-05 1 
12655 1 8.50936 1.8201 -11.2385 0.000138126 1 
12656 1 6.62765 3.07404 -13.0035 7.7786e-05 1 
12657 1 5.79398 0.916434 -11.3248 0.000403154 1 
12658 1 6.42136 3.46955 -10.1778 0.00128308 1 
12659 1 5.58875 1.31408 -8.51174 0.00335641 1 
12660 1 3.70189 2.56568 -10.2725 0.00203486 1 
12661 1 3.4978 2.96557 -7.47787 0.0206736 1 
12662 1 2.67092 0.826687 -5.79261 0.0290008 1 
12663 1 0.767859 2.06351 -7.50756 0.00553432 1 
12664 1 0.565877 2.48054 -4.66944 0.119102 1 
12704 1 10.1756 6.13738 -14.6092 2.6512e-05 1 
12706 1 7.46115 5.23154 -14.6866 2.67558e-05 1 
12707 1 8.08686 7.78419 -13.5449 4.57716e-05 1 
12708 1 7.25394 5.62559 -11.8608 0.000200266 1 
12709 1 5.37163 6.87978 -13.6244 0.000126152 1 
12710 1 4.53772 4.72264 -11.9469 0.000637161 1 
12711 1 5.16525 7.2772 -10.8038 0.000776296 1 
12712 1 4.33355 5.1202 -9.13721 0.00606167 1 
12713 1 2.44448 6.37338 -10.8837 0.000991482 1 
12714 1 1.60616 4.21544 -9.20759 0.00213014 1 
12715 1 2.23664 6.77643 -8.07894 0.0070787 1 
12716 1 1.40151 4.61597 -6.40717 0.0105108 1 
12717 1 38.7805 5.86226 -8.12221 0.00240454 1 
12762 1 6.83175 11.5888 -14.1626 4.03071e-05 1 
12763 1 5.99758 9.43351 -12.4808 0.000133974 1 
12764 1 4.11531 10.6837 -14.2384 8.66681e-05 1 
12765 1 3.28032 8.52916 -12.5587 0.000280466 1 
12766 1 3.90625 11.0838 -11.4127 0.000372654 1 
12767 1 3.07283 8.93096 -9.74003 0.00146879 1 
12768 1 40.4543 10.1766 -11.4834 0.000375324 1 
12769 1 39.6169 8.02197 -9.80257 0.00112326 1 
12770 1 40.2432 10.5786 -8.65619 0.00210583 1 
12771 1 39.4105 8.4265 -6.9717 0.00839253 1 
12818 1 5.57678 15.3891 -14.7796 4.44e-05 1 
12819 1 4.74106 13.2363 -13.0938 0.000109179 1 
12820 1 2.86036 14.4826 -14.8512 4.98621e-05 1 
12821 1 41.2904 12.33 -13.1651 0.000142057 1 
12822 1 41.9154 14.8817 -12.0188 0.000183114 1 
12823 1 41.0792 12.7306 -10.3329 0.000617978 1 
12824 1 39.2007 13.9721 -12.0851 0.000430385 1 
12825 1 38.9888 14.3679 -9.2389 0.00289514 1 
12874 1 3.48572 17.0338 -13.7084 8.05465e-05 1 
12876 1 40.0369 16.1252 -13.7764 0.000123815 1 
12877 1 40.6617 18.6758 -12.6323 0.000239469 1 
12878 1 39.8252 16.5222 -10.9365 0.000605864 1 
12930 1 41.4991 20.8281 -14.3272 0.000147943 1 
12932 1 38.7852 19.9188 -14.398 9.5231e-05 1 
12933 1 39.4111 22.4674 -13.2582 0.000153641 1 
12985 1 40.248 24.6228 -14.9566 3.98399e-05 1 
13233 1 18.9436 2.50902 -14.9072 5.16416e-05 1 
13234 1 16.2294 1.59866 -14.9751 6.49794e-05 1 
13235 1 16.0193 1.99202 -12.1455 0.000229201 1 
13236 1 13.3088 1.08128 -12.2148 0.000262007 1 
13237 1 13.1001 1.47121 -9.37858 0.00141667 1 
13238 1 10.1797 0.954787 -6.64373 0.0075028 1 
13270 1 16.8552 4.1528 -13.838 8.24939e-05 1 
13272 1 14.1425 3.24152 -13.9091 7.51169e-05 1 
13273 1 14.7684 5.7952 -12.7705 0.000134921 1 
13274 1 13.9337 3.6324 -11.08 0.000306753 1 
13275 1 12.0555 4.88452 -12.846 8.74248e-05 1 
13276 1 11.2226 2.72387 -11.1555 0.000321299 1 
13277 1 11.847 5.27098 -10.02 0.000540771 1 
13278 1 11.0139 3.10808 -8.32242 0.00247502 1 
13279 1 9.13436 4.36772 -10.0941 0.000540576 1 
13280 1 8.29987 2.21258 -8.41151 0.00159097 1 
13281 1 8.9191 4.74748 -7.25763 0.00435491 1 
13282 1 8.07934 2.59666 -5.57417 0.0167756 1 
13283 1 6.21313 3.86364 -7.33535 0.0243739 1 
13284 1 5.38518 1.70414 -5.69926 0.0698994 1 
13285 1 5.96721 4.21145 -4.45369 6.2542 5 
13286 1 5.27917 1.9949 -2.7402 7.95664 5 
13287 1 3.31747 3.36853 -4.726 0.312321 1 
13288 1 2.51092 1.27856 -2.98024 5.77039 5 
13289 1 3.24448 3.7853 -2.09037 9.31449 5 
13290 1 39.7019 2.87398 -1.61794 6.78429 5 
13291 1 38.4716 0.496141 -0.428092 6.72297 5 
13323 1 15.6031 7.95546 -14.4562 6.1968e-05 1 
13325 1 12.8896 7.04518 -14.5329 3.91259e-05 1 
13326 1 13.5159 9.59781 -13.3896 7.48372e-05 1 
13327 1 12.6814 7.43627 -11.7066 0.00022727 1 
13328 1 10.8013 8.68969 -13.4679 6.02219e-05 1 
13329 1 9.96729 6.52862 -11.7831 0.00014935 1 
13330 1 10.5923 9.07918 -10.6433 0.000479833 1 
13331 1 9.75769 6.91082 -8.95806 0.00133118 1 
13332 1 7.87894 8.17651 -10.7191 0.000387486 1 
13333 1 7.04646 6.015 -9.03067 0.00265594 1 
13334 1 7.67205 8.56035 -7.89399 0.00540488 1 
13335 1 6.83351 6.39041 -6.18422 0.0308516 1 
13336 1 4.96345 7.67691 -7.98744 0.0060545 1 
13337 1 4.13558 5.5286 -6.34748 0.0593194 1 
13338 1 4.76512 8.08652 -5.16825 0.0618158 1 
13339 1 3.97011 5.95768 -3.54658 1.3905 5 
13340 1 2.05081 7.1665 -5.29995 0.0611636 1 
13341 1 1.19111 5.01344 -3.62458 0.314373 1 
13342 1 1.94329 7.59152 -2.58996 5.58521 5 
13380 1 12.2625 13.3995 -14.0074 4.03461e-05 1 
13381 1 11.4277 11.2413 -12.3245 0.000130582 1 
13382 1 9.5473 12.4936 -14.0856 2.41826e-05 1 
13383 1 8.7124 10.3365 -12.401 0.00010327 1 
13384 1 9.33845 12.888 -11.2581 0.000180055 1 
13385 1 8.5032 10.7281 -9.5707 0.00188135 1 
13386 1 6.62352 11.9861 -11.336 0.000219026 1 
13387 1 5.79115 9.83098 -9.65758 0.000678612 1 
13388 1 6.41743 12.3829 -8.51235 0.00264505 1 
13389 1 5.5908 10.2269 -6.83658 0.00578749 1 
13390 1 3.69899 11.4871 -8.58942 0.00195927 1 
13391 1 2.87082 9.3366 -6.93097 0.00893434 1 
13392 1 3.50182 11.8972 -5.77227 0.0130619 1 
13393 1 2.67933 9.75793 -4.15076 0.0954635 1 
13394 1 40.036 10.988 -5.83589 0.0200311 1 
13395 1 39.2211 8.85125 -4.14789 2.33384 5 
13396 1 39.8281 11.4435 -3.00543 4.87873 5 
13397 1 40.3026 8.21134 -0.161562 12.9198 5 
13436 1 11.009 17.1994 -14.6269 2.41364e-05 1 
13437 1 10.1736 15.0453 -12.9408 4.88334e-05 1 
13438 1 8.29335 16.2946 -14.704 2.59914e-05 1 
13439 1 7.45792 14.1411 -13.0192 7.06259e-05 1 
13440 1 8.08441 16.6937 -11.8737 0.000173917 1 
13441 1 7.24919 14.5403 -10.1942 0.000662156 1 
13442 1 5.3666 15.7884 -11.9519 0.000258853 1 
13443 1 4.53148 13.6365 -10.2662 0.00053403 1 
13444 1 5.15573 16.1903 -9.13073 0.00232846 1 
13445 1 4.32181 14.0407 -7.43907 0.00434984 1 
13446 1 41.7027 15.2813 -9.18433 0.000846825 1 
13447 1 40.8671 13.1331 -7.49698 0.00385392 1 
13448 1 41.4889 15.6779 -6.34524 0.00891375 1 
13449 1 40.6504 13.5353 -4.65307 0.0535764 1 
13450 1 38.7732 14.7521 -6.37194 0.0328974 1 
13492 1 8.92002 18.845 -13.5606 4.3215e-05 1 
13494 1 6.20312 17.9402 -13.6377 0.000102686 1 
13495 1 6.82997 20.491 -12.4969 0.000212468 1 
13496 1 5.99345 18.3415 -10.8116 0.000978655 1 
13497 1 4.11115 19.5852 -12.5677 0.000252018 1 
13498 1 42.5392 17.4339 -10.8773 0.000438383 1 
13499 1 3.89708 19.9893 -9.73921 0.00219779 1 
13500 1 42.3238 17.8363 -8.05013 0.00300322 1 
13501 1 40.4478 19.0743 -9.79058 0.00168276 1 
13502 1 39.6119 16.9147 -8.08754 0.00445948 1 
13503 1 40.2269 19.4656 -6.93856 0.0134877 1 
13504 1 39.4058 17.2736 -5.21691 0.0472072 1 
13548 1 7.66606 22.6417 -14.188 7.43863e-05 1 
13550 1 4.94913 21.7361 -14.2597 6.06512e-05 1 
13551 1 5.57534 24.287 -13.1229 9.94656e-05 1 
13552 1 4.73779 22.1367 -11.4298 0.000417029 1 
13553 1 42.1252 23.3778 -13.1906 0.000139005 1 
13554 1 41.286 21.2262 -11.4878 0.0013891 1 
13555 1 41.9124 23.7749 -10.3569 0.00123563 1 
13556 1 41.0683 21.626 -8.63308 0.0151764 1 
13557 1 39.1999 22.8603 -10.419 0.000810571 1 
13558 1 38.9873 23.2523 -7.57616 0.00599316 1 
13603 1 6.41196 26.4401 -14.8178 4.76242e-05 1 
13605 1 42.9627 25.5323 -14.8866 2.7131e-05 1 
13606 1 43.5883 28.0854 -13.7514 7.29032e-05 1 
13607 1 42.7516 25.93 -12.0557 0.00011223 1 
13608 1 40.8746 27.1745 -13.8212 5.1808e-05 1 
13609 1 40.0374 25.0173 -12.124 0.000141814 1 
13610 1 40.6648 27.5706 -10.9907 0.000236503 1 
13611 1 39.8257 25.4116 -9.29208 0.000569009 1 
13662 1 42.3365 31.8849 -14.3775 0.000110375 1 
13663 1 41.5006 29.7288 -12.6839 0.000158645 1 
13664 1 39.6236 30.9738 -14.4512 5.3411e-05 1 
13665 1 38.7878 28.8154 -12.7593 0.000127583 1 
13666 1 39.4155 31.3688 -11.6196 0.000324111 1 
13718 1 40.2505 33.5265 -13.3119 0.0001319 1 
13773 1 39.0003 37.3251 -13.9423 7.06025e-05 1 
13843 1 24.3781 4.32568 -14.7656 0.000100445 1 
13844 1 23.5428 2.16828 -13.0844 0.000298095 1 
13845 1 21.6602 3.41835 -14.8391 9.2694e-05 1 
13846 1 20.8234 1.26095 -13.1527 0.000131325 1 
13847 1 21.4499 3.81613 -12.0199 0.000401257 1 
13848 1 20.6118 1.65946 -10.3319 0.000506797 1 
13849 1 18.7326 2.905 -12.0817 0.000170132 1 
13850 1 17.8937 0.745092 -10.386 0.00162902 1 
13851 1 18.5215 3.30098 -9.25641 0.000528476 1 
13852 1 17.6786 1.14087 -7.55618 0.0103493 1 
13853 1 15.8083 2.38391 -9.3156 0.000773651 1 
13854 1 15.5936 2.7726 -6.48939 0.00993969 1 
13855 1 12.8943 1.85461 -6.52722 0.0155283 1 
13856 1 12.6321 2.22761 -3.67607 0.125786 1 
13857 1 9.93973 1.34876 -3.8269 0.0828655 1 
13858 1 9.73328 1.73377 -1.06353 8.25357 5 
13859 1 14.881 45.3826 -1.57087 10.5627 5 
13883 1 22.2868 5.97365 -13.7008 0.000181915 1 
13885 1 19.5694 5.06446 -13.7699 0.000109008 1 
13886 1 20.1953 7.62095 -12.6287 0.000212628 1 
13887 1 19.3582 5.46292 -10.946 0.000450285 1 
13888 1 17.4808 6.70884 -12.6972 0.000175613 1 
13889 1 16.6455 4.54724 -11.0103 0.000279997 1 
13890 1 17.271 7.10576 -9.86614 0.00074179 1 
13891 1 16.437 4.93983 -8.18312 0.00123749 1 
13892 1 14.5604 6.18525 -9.94315 0.000849196 1 
13893 1 13.7232 4.01766 -8.2493 0.00186356 1 
13894 1 14.3544 6.56712 -7.11878 0.00856852 1 
13895 1 13.5012 4.39627 -5.41412 0.0209762 1 
13896 1 11.6359 5.6449 -7.19756 0.00381691 1 
13897 1 10.7898 3.48739 -5.4845 0.0145398 1 
13898 1 11.4205 5.99962 -4.38038 0.0399502 1 
13899 1 10.5716 3.88461 -2.6072 0.260475 1 
13900 1 8.68785 5.09286 -4.39931 0.0387204 1 
13901 1 7.83759 3.00902 -2.66914 2.88873 5 
13902 1 8.42055 5.49005 -1.46043 5.5389 5 
13903 1 6.95599 1.66253 -0.285588 5.68739 5 
13904 1 5.81662 4.23811 -0.816847 7.90563 5 
13929 1 21.0318 9.77649 -14.3112 9.2429e-05 1 
13931 1 18.3167 8.86672 -14.3824 9.32838e-05 1 
13932 1 18.9423 11.4205 -13.2351 0.000226394 1 
13933 1 18.1065 9.26465 -11.5502 0.00042488 1 
13934 1 16.2292 10.5086 -13.3105 0.000101112 1 
13935 1 15.3945 8.34942 -11.6248 0.000354034 1 
13936 1 16.0206 10.9011 -10.4753 0.000452515 1 
13937 1 15.1876 8.73887 -8.78635 0.00377084 1 
13938 1 13.3088 9.98749 -10.5619 0.000535676 1 
13939 1 12.4738 7.81924 -8.88534 0.00186652 1 
13940 1 13.1047 10.3683 -7.74066 0.00572015 1 
13941 1 12.2693 8.18626 -6.08157 0.0203752 1 
13942 1 10.3811 9.45654 -7.82643 0.00556803 1 
13943 1 9.54421 7.26613 -6.13293 0.0106827 1 
13944 1 10.1697 9.79592 -5.03176 0.0579612 1 
13945 1 9.33474 7.55973 -3.30106 0.197844 1 
13946 1 7.47003 8.90841 -5.0765 0.0555029 1 
13947 1 6.61028 6.6936 -3.29305 6.98608 5 
13948 1 7.29098 9.18302 -2.28738 8.00918 5 
13949 1 4.64009 8.49737 -2.29232 4.85924 5 
13950 1 3.93175 6.33496 -0.76451 9.6714 5 
13978 1 19.7784 13.5745 -14.9223 8.30347e-05 1 
13980 1 17.0645 12.665 -14.9969 4.6436e-05 1 
13981 1 17.6906 15.2156 -13.8497 0.000103295 1 
13982 1 16.8553 13.06 -12.1616 0.000146615 1 
13983 1 14.977 14.3067 -13.9279 5.04579e-05 1 
13984 1 14.1423 12.1495 -12.2428 0.000109601 1 
13985 1 14.7689 14.699 -11.0933 0.000179075 1 
13986 1 13.9346 12.539 -9.41161 0.000527462 1 
13987 1 12.0539 13.7925 -11.1783 0.000219313 1 
13988 1 11.2192 11.6294 -9.50131 0.00121663 1 
13989 1 11.8442 14.1809 -8.35335 0.00213389 1 
13990 1 11.0053 12.0059 -6.69495 0.0155617 1 
13991 1 9.12702 13.2786 -8.4347 0.00278311 1 
13992 1 8.29289 11.1103 -6.72535 0.0354245 1 
13993 1 8.9035 13.6726 -5.62428 0.0316606 1 
13994 1 8.08249 11.4712 -3.84846 2.04292 5 
13995 1 6.21672 12.7826 -5.70489 0.0368029 1 
13996 1 5.41466 10.6124 -4.01795 0.102205 1 
13997 1 5.96576 13.204 -2.96927 5.58825 5 
13998 1 5.41046 11.105 -1.19843 8.47619 5 
13999 1 3.31332 12.3166 -2.98571 0.160151 1 
14000 1 2.55526 10.1308 -1.42467 7.72409 5 
14031 1 16.4388 19.0105 -14.4732 5.21213e-05 1 
14032 1 15.6037 16.8554 -12.7819 0.000102386 1 
14033 1 13.7242 18.1042 -14.5504 2.92872e-05 1 
14034 1 12.889 15.9495 -12.8616 8.61756e-05 1 
14035 1 13.5154 18.4976 -11.7186 0.000317719 1 
14036 1 12.6803 16.3408 -10.0302 0.000728851 1 
14037 1 10.8 17.596 -11.7941 0.000135576 1 
14038 1 9.96421 15.4415 -10.1119 0.000335059 1 
14039 1 10.5918 17.9935 -8.95919 0.00126511 1 
14040 1 9.75044 15.8392 -7.28669 0.00378045 1 
14041 1 7.87668 17.0977 -9.04169 0.00252788 1 
14042 1 7.03978 14.9472 -7.37842 0.00643189 1 
14043 1 7.67103 17.5144 -6.19479 0.0420784 1 
14044 1 6.83289 15.3702 -4.57219 0.100723 1 
14045 1 4.94728 16.5988 -6.33004 0.0260545 1 
14046 1 4.10687 14.4626 -4.60662 0.0871099 1 
14047 1 4.76723 17.0059 -3.5818 0.503631 1 
14048 1 3.97231 14.8964 -1.63145 3.37019 5 
14049 1 41.3158 16.0563 -3.48848 0.147862 1 
14050 1 40.507 14.0053 -1.78154 4.9588 5 
14051 1 41.2609 16.6101 -0.603033 6.37557 5 
14086 1 14.3507 20.6525 -13.4093 6.5015e-05 1 
14088 1 11.6353 19.7486 -13.4836 8.12885e-05 1 
14089 1 12.2612 22.2966 -12.345 5.39282e-05 1 
14090 1 11.4251 20.1451 -10.6473 0.00109751 1 
14091 1 9.54645 21.3944 -12.419 0.000102832 1 
14092 1 8.71163 19.2447 -10.7276 0.000263537 1 
14093 1 9.33761 21.7951 -9.58365 0.000680811 1 
14094 1 8.50581 19.6486 -7.89004 0.00325207 1 
14095 1 6.62177 20.8957 -9.67081 0.00191438 1 
14096 1 5.78711 18.7495 -7.99992 0.013485 1 
14097 1 6.42536 21.3164 -6.85397 0.0237203 1 
14098 1 5.58973 19.1821 -5.23704 0.187547 1 
14099 1 42.9459 20.4009 -6.92007 0.0150367 1 
14100 1 42.1071 18.2424 -5.23667 0.0254071 1 
14101 1 42.7266 20.8198 -4.10798 0.31683 1 
14102 1 41.8545 18.6125 -2.46798 1.10779 1 
14103 1 39.9892 19.8653 -4.07643 0.252103 1 
14104 1 39.1775 17.5641 -2.36474 5.40576 5 
14105 1 39.6792 20.0163 -1.21356 9.97443 5 
14141 1 13.0975 24.4502 -14.04 2.07293e-05 1 
14143 1 10.3821 23.5461 -14.1134 4.37701e-05 1 
14144 1 11.0086 26.0953 -12.9782 0.000175491 1 
14145 1 10.1721 23.9439 -11.2809 0.000437149 1 
14146 1 8.29235 25.1917 -13.0542 0.00026992 1 
14147 1 7.45635 23.0414 -11.3588 0.000520122 1 
14148 1 8.0824 25.5917 -10.2326 0.00321285 1 
14149 1 7.24721 23.4497 -8.53081 0.00487798 1 
14150 1 5.36393 24.6899 -10.2928 0.000679002 1 
14151 1 4.5265 22.5442 -8.60372 0.00351883 1 
14152 1 5.15311 25.1051 -7.45839 0.00611798 1 
14153 1 43.5782 22.9595 -5.79453 0.0352282 1 
14154 1 41.6974 24.1751 -7.52425 0.00936994 1 
14155 1 40.8467 22.0245 -5.74937 0.16563 1 
14156 1 41.475 24.5709 -4.6881 0.221333 1 
14157 1 40.6654 22.4 -2.62946 6.8503 5 
14158 1 38.7898 23.6176 -4.71437 0.157815 1 
14196 1 11.8448 28.2501 -14.6744 4.87475e-05 1 
14198 1 9.12866 27.3454 -14.748 0.000109216 1 
14199 1 9.75527 29.8981 -13.617 0.000226527 1 
14200 1 8.91941 27.7433 -11.926 0.00109463 1 
14201 1 7.03763 28.9932 -13.6859 0.000156636 1 
14202 1 6.20057 26.8399 -11.9909 0.000262527 1 
14203 1 6.82573 29.3962 -10.8653 0.000985994 1 
14204 1 5.98687 27.247 -9.16514 0.00228244 1 
14205 1 43.3765 28.4863 -10.9209 0.000430854 1 
14206 1 42.5406 26.3303 -9.224 0.000562068 1 
14207 1 43.1679 28.8894 -8.08483 0.00268249 1 
14208 1 42.3294 26.7292 -6.38981 0.0130703 1 
14209 1 40.4571 27.9667 -8.16241 0.00182814 1 
14210 1 39.6101 25.8037 -6.46592 0.00956291 1 
14211 1 40.2573 28.3671 -5.3533 0.0675304 1 
14212 1 39.3605 26.1907 -3.67703 0.186682 1 
14255 1 8.50009 33.7023 -14.2439 0.000111198 1 
14256 1 7.66338 31.5488 -12.5551 0.000324781 1 
14257 1 45.05 32.7948 -14.3102 0.000100344 1 
14258 1 44.213 30.6407 -12.6165 0.000257809 1 
14259 1 44.8377 33.1964 -11.4816 0.000484931 1 
14260 1 44.0002 31.0442 -9.78355 0.00183959 1 
14261 1 42.1262 32.2837 -11.5428 0.000581187 1 
14262 1 41.2917 30.1278 -9.84883 0.000721045 1 
14263 1 41.918 32.6835 -8.6985 0.00288276 1 
14264 1 41.0853 30.5302 -7.00753 0.00754087 1 
14265 1 39.2096 31.7621 -8.78232 0.00332296 1 
14266 1 39.0095 32.1434 -5.92211 0.0462575 1 
14310 1 7.24636 37.5024 -14.8651 6.93672e-05 1 
14311 1 45.6753 35.3492 -13.1732 0.000181529 1 
14312 1 43.7984 36.5935 -14.9319 0.000121134 1 
14313 1 42.962 34.4387 -13.2379 0.000314289 1 
14314 1 43.5874 36.9916 -12.096 0.000619573 1 
14315 1 42.7508 34.838 -10.398 0.00189946 1 
14316 1 40.8775 36.0785 -12.1704 0.000233634 1 
14317 1 40.0431 33.9207 -10.4764 0.000570539 1 
14318 1 40.67 36.4712 -9.33166 0.000844931 1 
14319 1 39.836 34.3084 -7.63412 0.00308677 1 
14366 1 44.4241 39.1459 -13.7925 0.000202716 1 
14368 1 41.7127 38.2351 -13.8637 0.000164756 1 
14369 1 42.3392 40.7862 -12.7218 0.000386226 1 
14370 1 41.5052 38.6292 -11.0254 0.000650366 1 
14371 1 39.6286 39.8755 -12.8024 0.000175763 1 
14372 1 38.7943 37.718 -11.1108 0.000226185 1 
14373 1 39.4252 40.2649 -9.96983 0.0010024 1 
14398 1 43.1737 42.9431 -14.4178 0.000152216 1 
14400 1 40.4623 42.0335 -14.4938 8.76897e-05 1 
14401 1 41.0887 44.5847 -13.3539 0.000156226 1 
14402 1 40.2567 42.4254 -11.6615 0.000364089 1 
14405 1 30.2308 0.173987 -12.296 0.000143995 1 
14414 1 31.0633 2.333 -13.9843 5.89256e-05 1 
14415 1 28.3495 1.42665 -14.0635 3.36333e-05 1 
14416 1 28.1425 1.8201 -11.2385 0.000138126 1 
14417 1 25.4271 0.916434 -11.3248 0.000403154 1 
14418 1 25.2218 1.31408 -8.51174 0.00335641 1 
14419 1 22.304 0.826687 -5.79261 0.0290008 1 
14433 1 29.8087 6.13738 -14.6092 2.6512e-05 1 
14434 1 28.9754 3.9783 -12.9228 6.86322e-05 1 
14435 1 27.0943 5.23154 -14.6866 2.67558e-05 1 
14436 1 26.2608 3.07404 -13.0035 7.7786e-05 1 
14437 1 26.887 5.62559 -11.8608 0.000200266 1 
14438 1 26.0545 3.46955 -10.1778 0.00128308 1 
14439 1 24.1708 4.72264 -11.9469 0.000637161 1 
14440 1 23.335 2.56568 -10.2725 0.00203486 1 
14441 1 23.9667 5.1202 -9.13721 0.00606167 1 
14442 1 23.1309 2.96557 -7.47787 0.0206736 1 
14443 1 21.2393 4.21544 -9.20759 0.00213014 1 
14444 1 20.401 2.06351 -7.50756 0.00553432 1 
14445 1 21.0346 4.61597 -6.40717 0.0105108 1 
14446 1 20.199 2.48054 -4.66944 0.119102 1 
14447 1 18.3093 3.69211 -6.43026 0.013193 1 
14448 1 17.4519 1.53315 -4.71817 0.227187 1 
14449 1 18.1591 4.14085 -3.61897 0.282805 1 
14450 1 17.2328 2.10271 -1.99139 3.78506 5 
14451 1 15.3453 3.15978 -3.70241 0.214605 1 
14452 1 14.478 1.05799 -1.94888 7.47505 5 
14453 1 15.0656 3.67627 -0.637845 6.78473 5 
14469 1 27.72 7.78419 -13.5449 4.57716e-05 1 
14471 1 25.0047 6.87978 -13.6244 0.000126152 1 
14472 1 25.6307 9.43351 -12.4808 0.000133974 1 
14473 1 24.7983 7.2772 -10.8038 0.000776296 1 
14474 1 22.9134 8.52916 -12.5587 0.000280466 1 
14475 1 22.0776 6.37338 -10.8837 0.000991482 1 
14476 1 22.7059 8.93096 -9.74003 0.00146879 1 
14477 1 21.8697 6.77643 -8.07894 0.0070787 1 
14478 1 19.9838 8.02197 -9.80257 0.00112326 1 
14479 1 19.1474 5.86226 -8.12221 0.00240454 1 
14480 1 19.7774 8.4265 -6.9717 0.00839253 1 
14481 1 18.9423 6.27581 -5.30108 0.0384691 1 
14482 1 17.0632 7.5034 -7.02921 0.00513499 1 
14483 1 16.2372 5.33557 -5.36569 0.0370132 1 
14484 1 16.8748 7.90341 -4.16907 0.20522 1 
14485 1 15.9529 5.62921 -2.59173 0.935475 1 
14486 1 14.145 6.92219 -4.29748 0.117742 1 
14487 1 13.2493 4.6982 -2.54475 6.21063 5 
14488 1 13.9154 7.09314 -1.40078 9.41047 5 
14489 1 11.2293 6.42776 -1.5651 7.34868 5 
14507 1 26.4649 11.5888 -14.1626 4.03071e-05 1 
14509 1 23.7484 10.6837 -14.2384 8.66681e-05 1 
14510 1 24.3742 13.2363 -13.0938 0.000109179 1 
14511 1 23.5394 11.0838 -11.4127 0.000372654 1 
14512 1 21.6573 12.33 -13.1651 0.000142057 1 
14513 1 20.8212 10.1766 -11.4834 0.000375324 1 
14514 1 21.4461 12.7306 -10.3329 0.000617978 1 
14515 1 20.6101 10.5786 -8.65619 0.00210583 1 
14516 1 18.7315 11.8185 -10.3963 0.0015221 1 
14517 1 17.8972 9.66251 -8.7112 0.00207794 1 
14518 1 18.5179 12.2155 -7.54267 0.0153041 1 
14519 1 17.6856 10.0493 -5.86427 0.0391972 1 
14520 1 15.8108 11.2851 -7.63457 0.0037233 1 
14521 1 14.9824 9.11351 -5.92335 0.048824 1 
14522 1 15.6178 11.6376 -4.78348 0.0959644 1 
14523 1 14.76 9.45261 -3.01412 4.57843 5 
14524 1 12.9016 10.7504 -4.9472 0.0692045 1 
14525 1 12.1002 8.53109 -3.3224 0.342448 1 
14526 1 12.6308 11.1547 -2.2004 5.3373 5 
14527 1 12.0804 8.96745 -0.645506 7.85525 5 
14528 1 9.99547 10.0193 -2.27263 4.01101 5 
14548 1 25.2099 15.3891 -14.7796 4.44e-05 1 
14550 1 22.4935 14.4826 -14.8512 4.98622e-05 1 
14551 1 23.1188 17.0338 -13.7084 8.05465e-05 1 
14552 1 22.2823 14.8817 -12.0188 0.000183114 1 
14553 1 20.4038 16.1252 -13.7764 0.000123815 1 
14554 1 19.5676 13.9721 -12.0851 0.000430385 1 
14555 1 20.1921 16.5222 -10.9365 0.000605864 1 
14556 1 19.3557 14.3679 -9.2389 0.00289514 1 
14557 1 17.4817 15.6092 -11.0098 0.000441887 1 
14558 1 16.6466 13.4505 -9.32272 0.000691845 1 
14559 1 17.2755 15.9974 -8.16232 0.00258613 1 
14560 1 16.4312 13.8327 -6.48529 0.00995931 1 
14561 1 14.5608 15.087 -8.25625 0.00112195 1 
14562 1 13.73 12.9246 -6.5827 0.00870074 1 
14563 1 14.355 15.4753 -5.40686 0.040913 1 
14564 1 13.492 13.3433 -3.77994 0.103919 1 
14565 1 11.6172 14.5629 -5.54396 0.0252586 1 
14566 1 10.7606 12.3467 -3.93268 0.203649 1 
14567 1 11.3565 14.9066 -2.76673 0.48613 1 
14568 1 10.3939 12.4821 -1.20749 7.45841 5 
14569 1 8.7035 14.0557 -2.85176 5.82775 5 
14570 1 8.30774 10.5008 -0.208613 5.36081 5 
14571 1 7.38072 12.9899 -0.671173 9.21417 5 
14595 1 21.866 20.8281 -14.3272 0.000147943 1 
14596 1 21.0286 18.6758 -12.6323 0.000239469 1 
14597 1 19.1521 19.9188 -14.398 9.5231e-05 1 
14598 1 18.3163 17.7647 -12.7026 0.000265893 1 
14599 1 18.9412 20.313 -11.5582 0.000417578 1 
14600 1 18.1071 18.157 -9.85748 0.00147411 1 
14601 1 16.2303 19.403 -11.6372 0.00025154 1 
14602 1 15.397 17.2447 -9.94615 0.000720964 1 
14603 1 16.0243 19.7913 -8.80071 0.00183184 1 
14604 1 15.1991 17.6233 -7.11164 0.00872148 1 
14605 1 13.3076 18.886 -8.89471 0.00630255 1 
14606 1 12.473 16.7218 -7.19968 0.0107708 1 
14607 1 13.1103 19.2535 -6.1075 0.0903447 1 
14608 1 12.2334 17.0919 -4.37195 0.234056 1 
14609 1 10.3845 18.389 -6.12122 0.0257165 1 
14610 1 9.52886 16.2685 -4.461 0.103018 1 
14611 1 10.2412 18.8185 -3.18226 4.83807 5 
14612 1 9.20546 16.5524 -1.62992 3.74544 5 
14613 1 7.45869 17.9054 -3.28219 1.36374 5 
14614 1 6.59686 15.6167 -1.64015 7.34616 5 
14615 1 4.69184 17.6533 -0.989713 10.8332 5 
14642 1 20.6149 24.6228 -14.9566 3.98399e-05 1 
14643 1 19.778 22.4674 -13.2582 0.000153641 1 
14645 1 17.0649 21.5588 -13.332 9.04668e-05 1 
14646 1 17.691 24.1068 -12.1942 0.000170866 1 
14647 1 16.8556 21.9511 -10.4953 0.000381293 1 
14648 1 14.9768 23.2005 -12.2709 0.000103462 1 
14649 1 14.1419 21.0455 -10.5791 0.000808044 1 
14650 1 14.7657 23.5942 -9.4411 0.000940228 1 
14651 1 13.9312 21.4381 -7.76176 0.0107743 1 
14652 1 12.0481 22.6924 -9.51322 0.000913766 1 
14653 1 11.2127 20.5438 -7.80026 0.0179279 1 
14654 1 11.8289 23.0913 -6.68411 0.010029 1 
14655 1 10.9997 20.9416 -4.93832 1.19435 5 
14656 1 9.1268 22.2004 -6.7448 0.00708587 1 
14657 1 8.32179 20.0471 -5.03504 0.0742088 1 
14658 1 8.92277 22.6482 -3.91133 5.49894 5 
14659 1 8.09984 20.5578 -2.236 7.07089 5 
14660 1 6.23942 21.8069 -4.06868 0.141637 1 
14661 1 5.49092 19.6622 -2.55439 6.02965 5 
14662 1 6.12285 22.3564 -1.23734 10.7899 5 
14663 1 42.7341 20.9557 -1.34422 3.62461 5 
14691 1 18.5274 26.2637 -13.8933 6.0398e-05 1 
14693 1 15.8129 25.3556 -13.9665 4.95772e-05 1 
14694 1 16.4397 27.9049 -12.8341 0.000108049 1 
14695 1 15.6028 25.7475 -11.1358 0.000247099 1 
14696 1 13.7241 26.9987 -12.906 6.55928e-05 1 
14697 1 12.8865 24.8448 -11.2088 8.82816e-05 1 
14698 1 13.513 27.3899 -10.0757 0.000476439 1 
14699 1 12.6707 25.2402 -8.37552 0.00123688 1 
14700 1 10.7985 26.4923 -10.1442 0.00261529 1 
14701 1 9.95991 24.3476 -8.44237 0.00545967 1 
14702 1 10.5862 26.8957 -7.29525 0.0544518 1 
14703 1 9.74151 24.7572 -5.60596 0.317708 1 
14704 1 7.87036 26.0048 -7.43079 0.0337491 1 
14705 1 7.04472 23.8884 -5.70271 0.0461751 1 
14706 1 7.69129 26.4261 -4.65635 0.909049 5 
14707 1 6.85317 24.4305 -2.83774 7.95113 5 
14708 1 4.94618 25.5343 -4.62036 0.123704 1 
14709 1 43.3956 23.3954 -3.03256 0.979782 5 
14710 1 44.1009 26.0487 -1.53905 7.48641 5 
14711 1 42.8666 23.5103 -0.434695 7.01797 5 
14712 1 41.2628 25.1235 -1.97731 3.92445 5 
14743 1 17.2761 30.0636 -14.5278 4.91133e-05 1 
14745 1 14.5604 29.1557 -14.6018 4.13599e-05 1 
14746 1 15.1878 31.7074 -13.4694 8.33788e-05 1 
14747 1 14.351 29.5478 -11.7767 0.000208311 1 
14748 1 12.4715 30.8018 -13.543 7.0917e-05 1 
14749 1 11.6357 28.6446 -11.8474 0.000410038 1 
14750 1 12.2626 31.1967 -10.7207 0.00061651 1 
14751 1 11.4262 29.0387 -9.01717 0.00626353 1 
14752 1 9.54716 30.2988 -10.8007 0.00195064 1 
14753 1 8.71178 28.1468 -9.11851 0.0127815 1 
14754 1 9.34549 30.7094 -7.99884 0.0247596 1 
14755 1 8.51461 28.5667 -6.34588 0.207458 1 
14756 1 6.61479 29.8066 -8.05254 0.00699709 1 
14757 1 5.78495 27.6622 -6.32709 0.0213775 1 
14758 1 6.42144 30.2121 -5.25217 0.0934248 1 
14759 1 5.58124 28.0607 -3.4671 1.95451 5 
14760 1 42.9675 29.3041 -5.25005 0.044454 1 
14761 1 42.183 27.1934 -3.56393 0.450309 1 
14762 1 42.8502 29.7944 -2.31314 5.51452 5 
14763 1 41.6252 27.6521 -0.899956 11.0033 5 
14764 1 39.9006 28.6809 -2.62203 1.34531 5 
14799 1 13.9353 35.5115 -14.1002 4.30457e-05 1 
14800 1 13.0987 33.355 -12.4111 5.70534e-05 1 
14801 1 11.2177 34.6072 -14.1741 8.79152e-05 1 
14802 1 10.3818 32.4529 -12.4864 0.000317433 1 
14803 1 11.0087 35.0077 -11.354 0.000486285 1 
14804 1 10.1746 32.8573 -9.67168 0.00256975 1 
14805 1 8.28903 34.1054 -11.4217 0.000507719 1 
14806 1 7.45284 31.9555 -9.73792 0.00161927 1 
14807 1 8.07825 34.5154 -8.60182 0.00208711 1 
14808 1 7.24696 32.3698 -6.92924 0.00758209 1 
14809 1 44.6245 33.6009 -8.65162 0.00261544 1 
14810 1 43.7934 31.4513 -6.93744 0.0152951 1 
14811 1 44.4151 34.0092 -5.82656 0.0229673 1 
14812 1 43.628 31.8554 -4.07374 6.95302 5 
14813 1 41.7135 33.0702 -5.83986 0.0269754 1 
14814 1 40.9217 30.9271 -4.13876 0.29834 1 
14815 1 41.5387 33.4384 -2.87038 3.96577 5 
14816 1 40.4865 31.0508 -1.34427 7.54042 5 
14817 1 38.7698 32.5019 -3.03878 4.48506 5 
14854 1 12.6816 39.3145 -14.7278 5.35852e-05 1 
14855 1 11.845 37.1603 -13.0407 0.000146216 1 
14856 1 9.96323 38.4092 -14.7987 7.65643e-05 1 
14857 1 9.12601 36.2562 -13.1091 0.000163612 1 
14858 1 9.75214 38.8089 -11.9761 0.000326464 1 
14859 1 8.91429 36.6597 -10.2852 0.000679229 1 
14860 1 46.3004 37.9023 -12.0352 0.000254451 1 
14861 1 45.4621 35.752 -10.3418 0.000723453 1 
14862 1 46.0864 38.3037 -9.20089 0.000913107 1 
14863 1 45.2479 36.1575 -7.50405 0.00303223 1 
14864 1 43.3754 37.3892 -9.24931 0.00337272 1 
14865 1 42.5371 35.2372 -7.54218 0.0150744 1 
14866 1 43.161 37.7795 -6.38154 0.0323307 1 
14867 1 42.2977 35.6063 -4.67094 0.323764 1 
14868 1 40.4552 36.861 -6.49409 0.00887122 1 
14869 1 39.6387 34.6759 -4.78844 0.0844711 1 
14870 1 40.2659 37.2447 -3.66058 0.575557 1 
14871 1 39.2723 35.0831 -2.04146 8.75842 5 
14907 1 10.5901 40.9614 -13.6646 0.000144166 1 
14909 1 7.87193 40.055 -13.7291 0.00012254 1 
14910 1 8.49754 42.6075 -12.5948 0.000308901 1 
14911 1 46.9247 40.455 -10.9007 0.000515732 1 
14912 1 45.049 41.6982 -12.6534 0.000384756 1 
14913 1 44.2126 39.5433 -10.9539 0.000876924 1 
14914 1 44.8357 42.0965 -9.81254 0.00214834 1 
14915 1 44.0002 39.9378 -8.10407 0.00497687 1 
14916 1 42.1319 41.1791 -9.87811 0.00181608 1 
14917 1 41.3007 39.0204 -8.17766 0.00306439 1 
14918 1 41.9282 41.5678 -7.01789 0.0102083 1 
14919 1 41.1024 39.3953 -5.31458 0.0271469 1 
14920 1 39.231 40.6454 -7.13529 0.009585 1 
14921 1 39.0694 41.0282 -4.30775 0.173774 1 
14931 1 9.33599 44.7617 -14.2863 9.36095e-05 1 
14933 1 45.8861 43.8531 -14.3493 0.000194107 1 
14934 1 37.7396 0.350748 -13.2154 0.000235324 1 
14935 1 45.6732 44.2498 -11.513 0.00166602 1 
14936 1 43.7993 45.4941 -13.2796 0.000234001 1 
14937 1 42.9643 43.3367 -11.5801 0.000622485 1 
14938 1 43.5892 45.8857 -10.4422 0.00108697 1 
14939 1 42.7544 43.7283 -8.73226 0.00223446 1 
14940 1 40.8823 44.9761 -10.5194 0.000616592 1 
14941 1 40.0544 42.8135 -8.82711 0.00198359 1 
14942 1 40.6755 45.3686 -7.68144 0.00295288 1 
14943 1 39.8506 43.2082 -5.99955 0.0103731 1 
14944 1 30.0242 0.565773 -9.46939 0.000889633 1 
14945 1 38.5767 2.50902 -14.9072 5.16416e-05 1 
14947 1 35.8625 1.59866 -14.9751 6.49794e-05 1 
14948 1 36.4883 4.1528 -13.838 8.24939e-05 1 
14949 1 35.6524 1.99202 -12.1455 0.000229201 1 
14950 1 33.7756 3.24152 -13.9091 7.51169e-05 1 
14951 1 32.9419 1.08128 -12.2148 0.000262007 1 
14952 1 33.5668 3.6324 -11.08 0.000306753 1 
14953 1 32.7332 1.47121 -9.37858 0.00141667 1 
14954 1 30.8557 2.72387 -11.1555 0.000321299 1 
14955 1 30.647 3.10808 -8.32242 0.00247502 1 
14956 1 29.8128 0.954787 -6.64373 0.0075028 1 
14957 1 27.933 2.21258 -8.41151 0.00159097 1 
14958 1 27.7124 2.59666 -5.57417 0.0167756 1 
14959 1 25.0183 1.70414 -5.69926 0.0698994 1 
14960 1 24.9123 1.9949 -2.7402 7.95664 5 
14961 1 22.144 1.27856 -2.98024 5.77039 5 
14962 1 18.8385 0.496141 -0.428092 6.72297 5 
14969 1 35.2362 7.95546 -14.4562 6.1968e-05 1 
14970 1 34.4015 5.7952 -12.7705 0.000134921 1 
14971 1 32.5227 7.04518 -14.5329 3.91259e-05 1 
14972 1 31.6886 4.88452 -12.846 8.74248e-05 1 
14973 1 32.3145 7.43627 -11.7066 0.00022727 1 
14974 1 31.4801 5.27098 -10.02 0.000540771 1 
14975 1 29.6004 6.52862 -11.7831 0.00014935 1 
14976 1 28.7675 4.36772 -10.0941 0.000540576 1 
14977 1 29.3908 6.91082 -8.95806 0.00133118 1 
14978 1 28.5522 4.74748 -7.25763 0.00435491 1 
14979 1 26.6796 6.015 -9.03067 0.00265594 1 
14980 1 25.8462 3.86364 -7.33535 0.0243739 1 
14981 1 26.4666 6.39041 -6.18422 0.0308516 1 
14982 1 25.6003 4.21145 -4.45369 6.2542 5 