ITEM: TIMESTEP
0
ITEM: NUMBER OF ATOMS
3200
ITEM: BOX BOUNDS xy xz yz pp pp ss
-7.5328469910000004e+00 3.4839417331999996e+01 -7.5328469910000004e+00
0.0000000000000000e+00 5.1315360431999999e+01 0.0000000000000000e+00
-1.0561522886966087e+02 1.0740046031254442e+02 0.0000000000000000e+00
ITEM: ATOMS id type x y z c_csym c_cna 
1 1 -0.22496 44.3792 -4.95897 0.00947624 1 
2 1 -0.596777 48.1518 -3.5003 0.221587 1 
3 1 -0.157922 50.7968 -4.48627 0.0897691 1 
4 1 -0.192564 31.5625 -5.71042 0.18602 1 
5 1 -0.714373 35.3497 -4.40384 0.239958 1 
6 1 -0.199921 37.9729 -5.41531 0.0136142 1 
7 1 -1.15381 39.1088 -3.03176 0.217636 1 
8 1 -0.696705 41.7623 -3.93651 0.0469411 1 
9 1 -1.73169 42.8264 -1.43571 5.83696 5 
10 1 -1.21269 45.5514 -2.52428 0.365404 1 
11 1 -1.57085 49.2106 -1.17019 4.2827 5 
12 1 -0.219772 18.8232 -6.46555 0.00214971 1 
13 1 -0.681453 22.5787 -5.06932 0.0163428 1 
14 1 -0.204039 25.2166 -6.08438 0.0375076 1 
15 1 -1.15594 26.4364 -3.65751 0.621229 1 
16 1 -0.619052 29.0449 -4.52886 0.328525 1 
17 1 -1.72843 30.2239 -2.11566 6.08366 5 
18 1 -1.22593 32.7263 -3.39463 6.12487 5 
19 1 -1.51551 36.4016 -1.82902 4.6834 5 
20 1 -2.00005 40.1062 -0.497597 5.68854 5 
21 1 -0.216783 5.99221 -7.25381 0.0212901 1 
22 1 -0.683398 9.78096 -5.87184 0.0143917 1 
23 1 -0.207084 12.4151 -6.88614 0.00262742 1 
24 1 -1.1484 13.5627 -4.45824 0.0151771 1 
25 1 -0.697414 16.2014 -5.45528 0.00764742 1 
26 1 -1.69007 17.3772 -3.0248 0.213386 1 
27 1 -1.16734 19.9562 -4.00635 0.0359916 1 
28 1 -2.14622 21.0837 -1.63483 6.56095 5 
29 1 -1.63434 23.7229 -2.67737 3.81806 5 
30 1 -0.407525 22.9128 -0.421758 11.0911 5 
31 1 -1.78751 27.5863 -0.920059 6.62097 5 
38 1 -0.361136 10.1812 -1.19584 12.3353 5 
39 1 -2.08261 14.6819 -2.01508 0.307548 1 
40 1 -0.57259 16.592 -0.711675 7.25276 5 
46 1 -0.678624 43.6781 -14.8523 3.04017e-05 1 
48 1 -1.14783 47.4442 -13.4306 8.26998e-05 1 
49 1 -0.677367 50.0656 -14.4691 0.000128599 1 
50 1 -1.61652 51.2063 -12.008 0.000539556 1 
54 1 -1.14722 34.647 -14.2012 0.00010921 1 
56 1 -1.61937 38.4215 -12.7906 0.000106966 1 
57 1 -1.14938 41.0515 -13.82 4.81828e-05 1 
58 1 -2.09148 42.1949 -11.3683 0.000106856 1 
59 1 -1.61937 44.8205 -12.3978 5.34544e-05 1 
60 1 -0.44128 44.0354 -9.90914 0.000163197 1 
61 1 -2.55998 45.9626 -9.94504 0.000219719 1 
62 1 -2.08659 48.5865 -10.9734 0.000320184 1 
63 1 -0.903715 47.8028 -8.48307 0.00147352 1 
64 1 -0.437273 50.428 -9.50261 0.00204256 1 
65 1 -3.02253 49.7289 -8.51797 0.00329011 1 
69 1 -1.15011 21.8718 -14.9221 4.31697e-05 1 
71 1 -1.61849 25.6327 -13.5079 0.000107367 1 
72 1 -1.14645 28.2534 -14.5549 0.000118605 1 
73 1 -2.08635 29.3891 -12.1068 0.000444541 1 
74 1 -1.61679 32.0158 -13.1584 0.000190174 1 
75 1 -0.437154 31.2253 -10.6665 0.000749537 1 
76 1 -2.55856 33.1511 -10.7196 0.000803227 1 
77 1 -2.08918 35.7874 -11.7605 0.000293448 1 
78 1 -0.91076 34.9928 -9.28455 0.00158606 1 
79 1 -0.439439 37.6317 -10.3119 0.000361462 1 
80 1 -3.03256 36.9304 -9.32402 0.000389438 1 
81 1 -2.56224 39.5658 -10.3455 0.000309368 1 
82 1 -1.38132 38.7743 -7.87472 0.00155854 1 
83 1 -0.912967 41.409 -8.8839 0.000557888 1 
84 1 -3.50871 40.7108 -7.90103 0.0012674 1 
85 1 -3.03627 43.3379 -8.91681 0.00033677 1 
86 1 -1.86242 42.5497 -6.43154 0.00287599 1 
87 1 -1.38281 45.1732 -7.4592 0.0015359 1 
88 1 -3.9862 44.4808 -6.46555 0.00214971 1 
89 1 -3.50114 47.1046 -7.49992 0.00250015 1 
90 1 -2.31976 46.3141 -5.03043 0.0325072 1 
91 1 -1.82052 48.936 -6.03323 0.0303099 1 
92 1 -4.44788 48.2364 -5.06932 0.0163428 1 
93 1 -3.97046 50.8743 -6.08438 0.0375076 1 
94 1 -2.74677 50.0462 -3.67657 0.275201 1 
100 1 -1.62238 12.8515 -14.2745 6.68904e-05 1 
102 1 -2.09499 16.6241 -12.8539 7.93651e-05 1 
103 1 -1.6225 19.2489 -13.8862 4.33735e-05 1 
104 1 -0.445802 18.4653 -11.4006 7.88895e-05 1 
105 1 -2.56595 20.3919 -11.4306 0.000120331 1 
106 1 -2.09198 23.0135 -12.4662 0.000153127 1 
107 1 -0.914068 22.2316 -9.97903 0.000432302 1 
108 1 -0.439435 24.8522 -11.0102 0.000561151 1 
109 1 -3.03443 24.1555 -10.0089 0.000857927 1 
110 1 -2.55906 26.7709 -11.0552 0.000478787 1 
111 1 -1.38092 25.9969 -8.55522 0.00453933 1 
112 1 -0.907491 28.6068 -9.59835 0.00263721 1 
113 1 -3.49752 27.9075 -8.6066 0.00698869 1 
114 1 -3.02514 30.5206 -9.66409 0.00498675 1 
115 1 -1.84532 29.7491 -7.12798 0.0408825 1 
116 1 -1.37755 32.3526 -8.22716 0.00914745 1 
117 1 -3.98321 31.6499 -7.25381 0.0212901 1 
118 1 -3.50582 34.2898 -8.29449 0.00170164 1 
119 1 -2.34434 33.4816 -5.83271 0.0411556 1 
120 1 -1.85762 36.133 -6.85853 0.00404897 1 
121 1 -4.44982 35.4386 -5.87184 0.0143917 1 
122 1 -3.97351 38.0728 -6.88614 0.00262742 1 
123 1 -2.79583 37.2377 -4.40997 0.0749698 1 
124 1 -2.32952 39.9111 -5.44526 0.0124753 1 
125 1 -4.91483 39.2204 -4.45824 0.0151771 1 
126 1 -4.46384 41.8591 -5.45528 0.00764742 1 
127 1 -3.27509 41.0446 -3.01747 0.111568 1 
128 1 -2.82608 43.6921 -3.97526 0.0374884 1 
129 1 -5.45649 43.0349 -3.0248 0.213386 1 
130 1 -4.93376 45.6138 -4.00635 0.0359916 1 
131 1 -3.77259 44.8652 -1.45128 6.82583 5 
132 1 -3.22798 47.4216 -2.6399 0.423496 1 
133 1 -5.91264 46.7414 -1.63483 6.56095 5 
134 1 -5.40076 49.3805 -2.67737 3.81806 5 
135 1 -4.17395 48.5705 -0.421758 11.0911 5 
136 1 -3.66758 51.2816 -1.46917 8.42829 5 
141 1 -0.441631 5.65524 -12.1587 0.000432475 1 
144 1 -0.915098 9.42841 -10.767 0.000422785 1 
145 1 -0.444806 12.0639 -11.7964 0.000160057 1 
148 1 -1.38963 13.2099 -9.35253 0.000359291 1 
149 1 -0.919397 15.8402 -10.3733 0.000315869 1 
152 1 -1.86925 16.987 -7.91896 0.00150716 1 
153 1 -1.39079 19.6082 -8.94781 0.00031284 1 
156 1 -2.33712 20.7467 -6.49415 0.00246533 1 
157 1 -1.85766 23.3736 -7.52971 0.00305889 1 
160 1 -2.78941 24.5333 -5.07991 0.0778014 1 
161 1 -2.31061 27.1691 -6.08824 0.0528178 1 
164 1 -3.23897 28.3205 -3.57301 0.806568 5 
165 1 -2.84099 30.8842 -4.70577 5.79434 5 
168 1 -3.4515 32.4636 -1.20209 9.57845 5 
169 1 -3.25682 34.5517 -3.40208 4.48494 5 
172 1 -4.12756 35.8389 -1.19584 12.3353 5 
173 1 -3.67656 38.4141 -2.04107 5.00735 5 
174 1 -5.84903 40.3396 -2.01508 0.307548 1 
175 1 -4.33901 42.2497 -0.711675 7.25276 5 
176 1 32.2747 1.19559 -12.544 0.00034655 1 
179 1 31.3293 2.326 -10.0916 0.00228262 1 
180 1 31.8016 4.95225 -11.159 0.00154743 1 
183 1 30.8488 6.09318 -8.73176 0.0137064 1 
184 1 31.3312 8.72742 -9.76928 0.000552446 1 
187 1 30.3878 9.87181 -7.33786 0.00351505 1 
188 1 30.8566 12.5139 -8.35319 0.00140215 1 
191 1 29.9162 13.6656 -5.88544 0.00823045 1 
192 1 30.3753 16.2929 -6.90402 0.00397714 1 
195 1 29.4274 17.4343 -4.39786 0.0205419 1 
199 1 29.0326 21.1829 -2.93709 0.210446 1 
203 1 28.7539 25.0447 -1.47236 5.52356 5 
208 1 32.5088 1.54212 -7.58072 0.00813124 1 
209 1 29.9239 0.85059 -6.53601 0.0302069 1 
210 1 30.3729 3.4552 -7.64885 0.0258036 1 
211 1 31.5475 2.67872 -5.1505 0.261931 1 
212 1 32.0026 5.30415 -6.31226 0.171278 1 
213 1 29.4666 4.59006 -5.14508 0.179417 1 
214 1 29.9041 7.22572 -6.28648 0.03598 1 
215 1 31.1335 6.45907 -3.85112 0.945596 5 
217 1 28.9344 8.41275 -3.90642 0.452385 1 
218 1 29.4695 11.0289 -4.89855 0.0186598 1 
219 1 30.6896 10.2541 -2.44183 4.57724 5 
221 1 28.5718 12.1811 -2.50819 0.268563 1 
222 1 28.9824 14.8269 -3.39039 0.0861612 1 
223 1 30.2945 14.0634 -0.973307 6.65943 5 
225 1 28.0125 15.9181 -0.838019 6.21538 5 
226 1 28.4584 18.6366 -1.90769 0.292397 1 
227 1 31.1386 0.0426134 -4.01924 0.292848 1 
228 1 29.0444 2.04846 -4.00939 0.158765 1 
229 1 30.4218 1.3238 -1.58276 5.56395 5 
230 1 30.8046 3.99646 -2.43448 6.3775 5 
231 1 28.1714 3.18604 -1.51865 5.25632 5 
232 1 28.4725 5.72961 -2.79628 6.02567 5 
233 1 29.4687 5.45382 -0.287728 8.29914 5 
234 1 30.1331 7.689 -1.67288 13.5929 5 
235 1 28.1673 9.62479 -1.22649 8.25106 5 
293 1 -2.79748 45.6043 -14.8869 3.15677e-05 1 
295 1 -4.91653 47.5295 -14.9221 4.31697e-05 1 
297 1 -3.26629 49.3684 -13.4674 0.000117344 1 
298 1 -5.38491 51.2904 -13.5079 0.000107367 1 
330 1 -3.26796 36.578 -14.2402 8.2078e-05 1 
332 1 -5.38881 38.5091 -14.2745 6.68904e-05 1 
334 1 -3.7407 40.3526 -12.8236 9.70501e-05 1 
335 1 -3.26918 42.9796 -13.8535 3.78403e-05 1 
336 1 -5.86141 42.2818 -12.8539 7.93651e-05 1 
337 1 -5.38892 44.9066 -13.8862 4.33735e-05 1 
338 1 -4.21223 44.123 -11.4006 7.88895e-05 1 
339 1 -3.73871 46.7467 -12.4322 7.82083e-05 1 
340 1 -6.33237 46.0496 -11.4306 0.000120331 1 
341 1 -5.8584 48.6712 -12.4662 0.000153127 1 
342 1 -4.68049 47.8893 -9.97903 0.000432302 1 
343 1 -4.20586 50.5099 -11.0102 0.000561151 1 
344 1 -6.80086 49.8132 -10.0089 0.000857927 1 
369 1 -3.26911 23.7953 -14.9588 4.96128e-05 1 
373 1 -3.73801 27.5536 -13.5527 0.000164804 1 
374 1 -3.26624 30.1777 -14.6013 0.000108517 1 
377 1 -4.20805 31.3129 -12.1587 0.000432475 1 
378 1 -3.73785 33.9449 -13.2036 0.000187033 1 
381 1 -4.68152 35.0861 -10.767 0.000422785 1 
382 1 -4.21123 37.7216 -11.7964 0.000160057 1 
385 1 -5.15605 38.8676 -9.35253 0.000359291 1 
386 1 -4.68582 41.4979 -10.3733 0.000315869 1 
389 1 -5.63567 42.6447 -7.91896 0.00150716 1 
390 1 -5.15721 45.2659 -8.94781 0.00031284 1 
393 1 -6.10355 46.4044 -6.49415 0.00246533 1 
394 1 -5.62409 49.0312 -7.52971 0.00305889 1 
397 1 -6.55584 50.191 -5.07991 0.0778014 1 
416 1 28.9783 16.709 -14.3354 5.20126e-05 1 
420 1 28.5074 20.4762 -12.9118 9.01703e-05 1 
421 1 28.979 23.0974 -13.9516 0.000108173 1 
424 1 28.0367 24.2369 -11.489 0.000467542 1 
425 1 28.5083 26.8533 -12.544 0.00034655 1 
428 1 27.5628 27.9837 -10.0916 0.00228262 1 
429 1 28.0352 30.6099 -11.159 0.00154743 1 
432 1 27.0824 31.7509 -8.73176 0.0137064 1 
433 1 27.5648 34.3851 -9.76928 0.000552446 1 
436 1 26.6214 35.5295 -7.33786 0.00351505 1 
437 1 27.0902 38.1716 -8.35319 0.00140215 1 
440 1 26.1497 39.3233 -5.88544 0.00823045 1 
441 1 26.6089 41.9506 -6.90402 0.00397714 1 
444 1 25.6609 43.0919 -4.39786 0.0205419 1 
448 1 25.2662 46.8405 -2.93709 0.210446 1 
451 1 24.9875 50.7024 -1.47236 5.52356 5 
459 1 30.6271 5.74485 -13.6426 0.000318883 1 
460 1 31.0988 8.37647 -14.686 0.000114851 1 
461 1 28.5089 7.67408 -13.6816 0.000234895 1 
462 1 28.9796 10.3069 -14.7212 8.02129e-05 1 
463 1 30.1555 9.51785 -12.2424 0.000239387 1 
464 1 30.6261 12.1516 -13.2746 0.000116333 1 
465 1 28.0372 11.4498 -12.2728 0.000189581 1 
466 1 28.5073 14.0817 -13.3031 0.000100635 1 
467 1 29.682 13.2978 -10.8235 0.00031867 1 
468 1 30.1527 15.9263 -11.8505 0.00019649 1 
469 1 27.5647 15.2271 -10.8451 0.000313456 1 
470 1 28.0357 17.8526 -11.8763 0.000125473 1 
471 1 29.2074 17.0716 -9.38759 0.000795962 1 
472 1 29.6817 19.6937 -10.4235 0.000164302 1 
473 1 27.095 18.9943 -9.41023 0.000393977 1 
474 1 27.5667 21.6179 -10.4475 0.000249108 1 
475 1 28.7424 20.8333 -7.95838 0.00204726 1 
476 1 29.2148 23.4588 -8.99134 0.00185732 1 
477 1 26.6321 22.7578 -7.97532 0.00231492 1 
478 1 27.0968 25.3731 -9.0162 0.00267098 1 
479 1 28.2908 24.594 -6.50016 0.0181304 1 
480 1 28.7424 27.1998 -7.58072 0.00813124 1 
481 1 26.1575 26.5083 -6.53601 0.0302069 1 
482 1 26.6065 29.1129 -7.64885 0.0258036 1 
483 1 27.7811 28.3364 -5.1505 0.261931 1 
484 1 28.2362 30.9618 -6.31226 0.171278 1 
485 1 25.7001 30.2477 -5.14508 0.179417 1 
486 1 26.1376 32.8834 -6.28648 0.03598 1 
487 1 27.3671 32.1167 -3.85112 0.945596 5 
489 1 25.168 34.0704 -3.90642 0.452385 1 
490 1 25.7031 36.6866 -4.89855 0.0186598 1 
491 1 26.9231 35.9118 -2.44183 4.57724 5 
493 1 24.8054 37.8388 -2.50819 0.268563 1 
494 1 25.216 40.4845 -3.39039 0.0861612 1 
495 1 26.5281 39.7211 -0.973307 6.65943 5 
497 1 24.2461 41.5758 -0.838019 6.21538 5 
498 1 24.692 44.2943 -1.90769 0.292397 1 
499 1 28.5095 1.28306 -14.0268 0.000188025 1 
500 1 29.6845 0.497947 -11.5243 0.000890294 1 
501 1 30.1549 3.11703 -12.5873 0.000428108 1 
502 1 27.5681 2.41858 -11.5668 0.000810628 1 
503 1 28.0381 5.04256 -12.6303 0.000448158 1 
504 1 29.2085 4.25119 -10.1363 0.00277402 1 
505 1 29.6826 6.8826 -11.2012 0.00137243 1 
506 1 27.1003 6.17499 -10.1778 0.0021352 1 
507 1 27.5673 8.81323 -11.2361 0.000630658 1 
508 1 28.7409 8.01878 -8.76029 0.00476937 1 
509 1 29.2123 10.6616 -9.79942 0.000723843 1 
510 1 26.6277 9.95607 -8.79192 0.00151461 1 
511 1 27.0958 12.5952 -9.82191 0.00041807 1 
512 1 28.2734 11.8099 -7.35307 0.0019077 1 
513 1 28.7388 14.446 -8.36282 0.000999948 1 
514 1 26.1557 13.7415 -7.36701 0.0018507 1 
515 1 26.6232 16.3727 -8.37773 0.00137736 1 
516 1 27.7976 15.594 -5.88537 0.00564967 1 
517 1 28.2634 18.2136 -6.90723 0.00378618 1 
518 1 25.683 17.5168 -5.89681 0.00704999 1 
519 1 26.1587 20.1324 -6.94025 0.00392354 1 
520 1 27.3206 19.3633 -4.41306 0.028054 1 
521 1 27.8381 21.9622 -5.48936 0.0504725 1 
522 1 25.2196 21.2454 -4.48758 0.0679633 1 
523 1 25.6877 23.8991 -5.51542 0.0388172 1 
524 1 26.9413 23.0501 -3.13718 0.601392 1 
525 1 27.3722 25.7003 -4.01924 0.292848 1 
526 1 24.7747 25.0901 -3.0203 0.984531 5 
527 1 25.278 27.7061 -4.00939 0.158765 1 
528 1 26.6553 26.9815 -1.58276 5.56395 5 
529 1 27.0382 29.6541 -2.43448 6.3775 5 
530 1 24.4049 28.8437 -1.51865 5.25632 5 
531 1 24.706 31.3873 -2.79628 6.02567 5 
532 1 25.7023 31.1115 -0.287728 8.29914 5 
533 1 26.3667 33.3467 -1.67288 13.5929 5 
534 1 24.4009 35.2825 -1.22649 8.25106 5 
535 1 28.7401 1.63442 -9.05229 0.00675275 1 
536 1 26.1635 0.947324 -8.03445 0.00308239 1 
537 1 26.6313 3.55243 -9.0988 0.00343111 1 
538 1 27.8008 2.78316 -6.54857 0.0463253 1 
539 1 28.2723 5.37967 -7.66251 0.0137297 1 
540 1 25.6934 4.68176 -6.63745 0.0228551 1 
541 1 26.1686 7.30787 -7.73781 0.00984643 1 
542 1 27.3141 6.51266 -5.21132 0.113277 1 
543 1 27.8053 9.16524 -6.33409 0.0271193 1 
544 1 25.2703 8.44765 -5.29649 0.124499 1 
545 1 25.6922 11.0996 -6.33934 0.00880117 1 
546 1 26.917 10.2874 -3.87927 0.190958 1 
547 1 27.3378 12.953 -4.90977 0.0232728 1 
548 1 24.7588 12.2626 -3.88986 0.125807 1 
549 1 25.2149 14.8874 -4.90849 0.0105669 1 
550 1 26.4129 14.0717 -2.47499 0.166784 1 
551 1 26.8559 16.7364 -3.38818 0.0328555 1 
552 1 24.2495 16.0002 -2.45283 0.167535 1 
553 1 24.7327 18.6403 -3.40074 0.0864423 1 
554 1 26.3295 20.5055 -1.88731 0.760764 1 
555 1 23.6368 19.635 -0.990506 5.75917 5 
556 1 24.2393 22.392 -2.16097 6.80856 5 
557 1 26.153 24.1893 -0.886325 11.3098 5 
558 1 27.3587 0.190921 -5.51062 0.0288641 1 
559 1 25.2256 2.07065 -5.55872 0.0862006 1 
560 1 26.4642 1.30237 -2.96035 5.23746 5 
561 1 26.8169 3.89944 -4.02751 5.26225 5 
562 1 24.1839 3.30838 -3.25235 7.49438 5 
563 1 24.7796 5.87443 -4.15373 6.76136 5 
564 1 26.5146 5.44123 -0.531868 7.36221 5 
565 1 26.5153 7.66974 -2.59148 6.4566 5 
566 1 23.964 7.10956 -1.67526 8.72367 5 
567 1 24.3751 9.62019 -2.95185 5.00533 5 
568 1 24.2272 9.68226 -0.22015 9.28868 5 
569 1 26.0247 11.3839 -1.52773 8.65692 5 
570 1 23.8278 13.2506 -1.31418 6.24258 5 
571 1 23.8978 0.644435 -2.02975 4.88877 5 
572 1 25.4343 2.90935 -0.97857 9.24735 5 
754 1 -7.03554 49.453 -14.9588 4.96128e-05 1 
800 1 25.2119 42.3667 -14.3354 5.20126e-05 1 
804 1 24.741 46.1338 -12.9118 9.01703e-05 1 
805 1 25.2126 48.755 -13.9516 0.000108173 1 
808 1 24.2703 49.8946 -11.489 0.000467542 1 
843 1 26.8607 31.4025 -13.6426 0.000318883 1 
844 1 27.3324 34.0342 -14.686 0.000114851 1 
845 1 24.7425 33.3318 -13.6816 0.000234895 1 
846 1 25.2132 35.9645 -14.7212 8.02129e-05 1 
847 1 26.389 35.1755 -12.2424 0.000239387 1 
848 1 26.8597 37.8093 -13.2746 0.000116333 1 
849 1 24.2708 37.1075 -12.2728 0.000189581 1 
850 1 24.7409 39.7394 -13.3031 0.000100635 1 
851 1 25.9156 38.9555 -10.8235 0.00031867 1 
852 1 26.3863 41.584 -11.8505 0.00019649 1 
853 1 23.7983 40.8848 -10.8451 0.000313456 1 
854 1 24.2693 43.5102 -11.8763 0.000125473 1 
855 1 25.4409 42.7293 -9.38759 0.000795962 1 
856 1 25.9153 45.3514 -10.4235 0.000164302 1 
857 1 23.3286 44.652 -9.41023 0.000393977 1 
858 1 23.8003 47.2756 -10.4475 0.000249108 1 
859 1 24.976 46.491 -7.95838 0.00204726 1 
860 1 25.4484 49.1164 -8.99134 0.00185732 1 
861 1 22.8656 48.4154 -7.97532 0.00231492 1 
862 1 23.3303 51.0307 -9.0162 0.00267098 1 
863 1 24.5244 50.2517 -6.50016 0.0181304 1 
884 1 26.8608 18.6351 -14.3657 4.78613e-05 1 
886 1 24.7437 20.56 -14.3976 6.39355e-05 1 
888 1 26.3903 22.3995 -12.9422 0.000145983 1 
889 1 26.8607 25.019 -13.9875 0.000163691 1 
890 1 24.2731 24.3217 -12.9764 0.000206023 1 
891 1 24.7431 26.9407 -14.0268 0.000188025 1 
892 1 25.9181 26.1556 -11.5243 0.000890294 1 
893 1 26.3885 28.7747 -12.5873 0.000428108 1 
894 1 23.8017 28.0763 -11.5668 0.000810628 1 
895 1 24.2717 30.7002 -12.6303 0.000448158 1 
896 1 25.442 29.9089 -10.1363 0.00277402 1 
897 1 25.9162 32.5403 -11.2012 0.00137243 1 
898 1 23.3339 31.8327 -10.1778 0.0021352 1 
899 1 23.8009 34.4709 -11.2361 0.000630658 1 
900 1 24.9745 33.6765 -8.76029 0.00476937 1 
901 1 25.4459 36.3193 -9.79942 0.000723843 1 
902 1 22.8612 35.6138 -8.79192 0.00151461 1 
903 1 23.3294 38.2529 -9.82191 0.00041807 1 
904 1 24.507 37.4676 -7.35307 0.0019077 1 
905 1 24.9723 40.1037 -8.36282 0.000999948 1 
906 1 22.3892 39.3992 -7.36701 0.0018507 1 
907 1 22.8568 42.0304 -8.37773 0.00137736 1 
908 1 24.0312 41.2517 -5.88537 0.00564967 1 
909 1 24.497 43.8713 -6.90723 0.00378618 1 
910 1 21.9165 43.1745 -5.89681 0.00704999 1 
911 1 22.3923 45.7901 -6.94025 0.00392354 1 
912 1 23.5542 45.021 -4.41306 0.028054 1 
913 1 24.0717 47.6199 -5.48936 0.0504725 1 
914 1 21.4532 46.9031 -4.48758 0.0679633 1 
915 1 21.9213 49.5568 -5.51542 0.0388172 1 
916 1 23.1748 48.7078 -3.13718 0.601392 1 
917 1 21.0083 50.7478 -3.0203 0.984531 5 
929 1 26.3917 9.60419 -13.7175 0.000131593 1 
930 1 26.8615 12.2368 -14.7537 5.25011e-05 1 
931 1 24.2743 11.5347 -13.7521 6.81767e-05 1 
932 1 24.7437 14.1656 -14.7857 3.87107e-05 1 
933 1 25.9201 13.3804 -12.3012 0.000120079 1 
934 1 26.3901 16.0096 -13.3316 8.04648e-05 1 
935 1 23.8031 15.309 -12.331 0.000102616 1 
936 1 24.2734 17.9358 -13.3623 6.62443e-05 1 
937 1 25.4494 17.1531 -10.8709 0.000262911 1 
938 1 25.9204 19.7772 -11.9046 8.98486e-05 1 
939 1 23.3344 19.0776 -10.9027 0.000176654 1 
940 1 23.8041 21.7015 -11.936 0.000157763 1 
941 1 24.9827 20.9177 -9.44016 0.000244706 1 
942 1 25.4506 23.5398 -10.4752 0.000470425 1 
943 1 22.8661 22.8437 -9.47169 0.000719001 1 
944 1 23.3331 25.4617 -10.5102 0.000611753 1 
945 1 24.5116 24.6825 -8.00389 0.00314048 1 
946 1 24.9737 27.2921 -9.05229 0.00675275 1 
947 1 22.3971 26.605 -8.03445 0.00308239 1 
948 1 22.8648 29.2101 -9.0988 0.00343111 1 
949 1 24.0343 28.4408 -6.54857 0.0463253 1 
950 1 24.5059 31.0373 -7.66251 0.0137297 1 
951 1 21.927 30.3394 -6.63745 0.0228551 1 
952 1 22.4022 32.9656 -7.73781 0.00984643 1 
953 1 23.5477 32.1703 -5.21132 0.113277 1 
954 1 24.0388 34.8229 -6.33409 0.0271193 1 
955 1 21.5039 34.1053 -5.29649 0.124499 1 
956 1 21.9258 36.7573 -6.33934 0.00880117 1 
957 1 23.1505 35.9451 -3.87927 0.190958 1 
958 1 23.5714 38.6107 -4.90977 0.0232728 1 
959 1 20.9924 37.9203 -3.88986 0.125807 1 
960 1 21.4485 40.545 -4.90849 0.0105669 1 
961 1 22.6465 39.7294 -2.47499 0.166784 1 
962 1 23.0895 42.3941 -3.38818 0.0328555 1 
963 1 20.4831 41.6579 -2.45283 0.167535 1 
964 1 20.9663 44.2979 -3.40074 0.0864423 1 
965 1 22.5631 46.1632 -1.88731 0.760764 1 
966 1 19.8704 45.2927 -0.990506 5.75917 5 
967 1 20.4729 48.0497 -2.16097 6.80856 5 
968 1 22.3865 49.847 -0.886325 11.3098 5 
970 1 25.9225 0.586255 -13.0149 0.000258101 1 
971 1 26.3929 3.2066 -14.0689 0.000190271 1 
972 1 23.8069 2.50807 -13.0593 0.000280793 1 
973 1 24.2767 5.13201 -14.1129 0.000182011 1 
974 1 25.4548 4.34105 -11.6136 0.000779562 1 
975 1 25.9232 6.9702 -12.6717 0.000330064 1 
976 1 23.3385 6.26752 -11.6659 0.000538183 1 
977 1 23.8061 8.90067 -12.714 0.000191822 1 
978 1 24.9856 8.10733 -10.2268 0.000735098 1 
979 1 25.4516 10.7458 -11.2697 0.000238811 1 
980 1 22.8681 10.0396 -10.2704 0.000634552 1 
981 1 23.3344 12.6773 -11.3022 0.000182696 1 
982 1 24.5134 11.8877 -8.82113 0.000690111 1 
983 1 24.9796 14.5249 -9.84564 0.00035499 1 
984 1 22.3946 13.8209 -8.85207 0.000605427 1 
985 1 22.8629 16.4522 -9.87421 0.000285373 1 
986 1 24.0389 15.6685 -7.38626 0.00119177 1 
987 1 24.51 18.2945 -8.40458 0.00111243 1 
988 1 21.9195 17.5923 -7.41655 0.000969585 1 
989 1 22.3966 20.2161 -8.44377 0.000725975 1 
990 1 23.5652 19.4265 -5.93566 0.00721122 1 
991 1 24.0461 22.0537 -6.97967 0.00292858 1 
992 1 21.4598 21.354 -5.99397 0.0122472 1 
993 1 21.9341 23.9961 -7.00271 0.00948372 1 
994 1 23.1077 23.2124 -4.54004 0.098763 1 
995 1 23.5923 25.8486 -5.51062 0.0288641 1 
996 1 21.0282 25.1391 -4.48627 0.0897691 1 
997 1 21.4592 27.7283 -5.55872 0.0862006 1 
998 1 22.6978 26.9601 -2.96035 5.23746 5 
999 1 23.0505 29.5571 -4.02751 5.26225 5 
1000 1 20.4175 28.9661 -3.25235 7.49438 5 
1001 1 21.0131 31.5321 -4.15373 6.76136 5 
1002 1 22.7482 31.0989 -0.531868 7.36221 5 
1003 1 22.7489 33.3274 -2.59148 6.4566 5 
1004 1 20.1976 32.7672 -1.67526 8.72367 5 
1005 1 20.6087 35.2779 -2.95185 5.00533 5 
1006 1 20.4607 35.3399 -0.22015 9.28868 5 
1007 1 22.2583 37.0416 -1.52773 8.65692 5 
1008 1 20.0614 38.9082 -1.31418 6.24258 5 
1009 1 24.9836 1.72489 -10.5493 0.000912509 1 
1010 1 22.3981 1.03206 -9.54074 0.00313107 1 
1011 1 22.869 3.64253 -10.6052 0.00149325 1 
1012 1 24.0427 2.86186 -8.07856 0.00783013 1 
1013 1 24.5195 5.47226 -9.16572 0.00394458 1 
1014 1 21.924 4.7807 -8.16851 0.00992209 1 
1015 1 22.401 7.40312 -9.22888 0.00207896 1 
1016 1 23.5993 6.60213 -6.74105 0.046447 1 
1017 1 24.0538 9.24228 -7.78331 0.00560678 1 
1018 1 21.4478 8.53784 -6.81646 0.0212292 1 
1019 1 21.9284 11.1791 -7.83757 0.0015088 1 
1020 1 23.1075 10.3713 -5.36693 0.0335261 1 
1021 1 23.5746 13.0279 -6.37308 0.00279232 1 
1022 1 20.9862 12.3152 -5.41531 0.0136142 1 
1023 1 21.4511 14.9634 -6.39822 0.0037731 1 
1024 1 22.6356 14.1667 -3.92268 0.0512388 1 
1025 1 23.0916 16.8066 -4.92748 0.00947993 1 
1026 1 20.4894 16.1046 -3.93651 0.0469411 1 
1027 1 20.9612 18.7216 -4.95897 0.00947624 1 
1028 1 22.1015 17.9005 -2.47465 0.164956 1 
1029 1 22.5876 20.5454 -3.49357 0.15929 1 
1030 1 19.9734 19.8937 -2.52428 0.365404 1 
1031 1 20.5894 22.4941 -3.5003 0.221587 1 
1032 1 22.2871 24.3368 -1.90648 2.87479 5 
1033 1 19.6153 23.5529 -1.17019 4.2827 5 
1034 1 20.1314 26.3021 -2.02975 4.88877 5 
1035 1 21.6679 28.567 -0.97857 9.24735 5 
1036 1 23.5788 0.254894 -7.01767 0.0200364 1 
1037 1 21.4554 2.18011 -7.0709 0.0313541 1 
1038 1 22.6159 1.38787 -4.52906 0.333084 1 
1039 1 23.079 4.04 -5.64738 0.171751 1 
1040 1 20.5671 3.3872 -4.52886 0.328525 1 
1041 1 20.9936 5.90484 -5.71042 0.18602 1 
1042 1 22.1809 5.32553 -2.94875 2.16756 5 
1043 1 22.6727 7.71687 -4.41528 0.704591 1 
1044 1 19.9602 7.06865 -3.39463 6.12487 5 
1045 1 20.4718 9.69206 -4.40384 0.239958 1 
1046 1 21.8554 8.88781 -2.1863 11.8977 5 
1047 1 22.2034 11.5258 -2.9832 2.06051 5 
1048 1 19.6706 10.744 -1.82902 4.6834 5 
1049 1 20.0323 13.4511 -3.03176 0.217636 1 
1050 1 21.233 12.7019 -0.68498 11.4334 5 
1051 1 21.7212 15.3062 -1.4814 5.5568 5 
1052 1 19.1861 14.4486 -0.497597 5.68854 5 
1053 1 19.4544 17.1687 -1.43571 5.83696 5 
1054 1 20.0302 0.778689 -3.65751 0.621229 1 
1055 1 21.8576 2.71262 -1.92483 5.19994 5 
1056 1 19.3986 1.92858 -0.920059 6.62097 5 
1057 1 19.4577 4.56625 -2.11566 6.08366 5 
1058 1 20.6495 6.8477 -0.844046 10.0086 5 
1414 1 23.0944 44.2928 -14.3657 4.78613e-05 1 
1416 1 20.9773 46.2177 -14.3976 6.39355e-05 1 
1418 1 22.6239 48.0571 -12.9422 0.000145983 1 
1419 1 23.0942 50.6766 -13.9875 0.000163691 1 
1420 1 20.5067 49.9793 -12.9764 0.000206023 1 
1459 1 22.6253 35.2619 -13.7175 0.000131593 1 
1460 1 23.095 37.8944 -14.7537 5.25011e-05 1 
1461 1 20.5079 37.1924 -13.7521 6.81767e-05 1 
1462 1 20.9773 39.8233 -14.7857 3.87107e-05 1 
1463 1 22.1537 39.0381 -12.3012 0.000120079 1 
1464 1 22.6236 41.6673 -13.3316 8.04648e-05 1 
1465 1 20.0367 40.9667 -12.331 0.000102616 1 
1466 1 20.507 43.5935 -13.3623 6.62443e-05 1 
1467 1 21.683 42.8108 -10.8709 0.000262911 1 
1468 1 22.1539 45.4349 -11.9046 8.98486e-05 1 
1469 1 19.5679 44.7353 -10.9027 0.000176654 1 
1470 1 20.0377 47.3592 -11.936 0.000157763 1 
1471 1 21.2162 46.5754 -9.44016 0.000244706 1 
1472 1 21.6842 49.1974 -10.4752 0.000470425 1 
1473 1 19.0997 48.5014 -9.47169 0.000719001 1 
1474 1 19.5667 51.1194 -10.5102 0.000611753 1 
1475 1 20.7451 50.3402 -8.00389 0.00314048 1 
1500 1 22.6263 22.4843 -14.4319 9.97823e-05 1 
1502 1 20.5088 24.4079 -14.4691 0.000128599 1 
1504 1 22.1561 26.2439 -13.0149 0.000258101 1 
1505 1 22.6265 28.8643 -14.0689 0.000190271 1 
1506 1 20.0404 28.1657 -13.0593 0.000280793 1 
1507 1 20.5103 30.7897 -14.1129 0.000182011 1 
1508 1 21.6884 29.9987 -11.6136 0.000779562 1 
1509 1 22.1567 32.6279 -12.6717 0.000330064 1 
1510 1 19.5721 31.9252 -11.6659 0.000538183 1 
1511 1 20.0397 34.5584 -12.714 0.000191822 1 
1512 1 21.2191 33.765 -10.2268 0.000735098 1 
1513 1 21.6851 36.4035 -11.2697 0.000238811 1 
1514 1 19.1016 35.6973 -10.2704 0.000634552 1 
1515 1 19.5679 38.3349 -11.3022 0.000182696 1 
1516 1 20.747 37.5453 -8.82113 0.000690111 1 
1517 1 21.2131 40.1826 -9.84564 0.00035499 1 
1518 1 18.6281 39.4786 -8.85207 0.000605427 1 
1519 1 19.0965 42.1099 -9.87421 0.000285373 1 
1520 1 20.2725 41.3262 -7.38626 0.00119177 1 
1521 1 20.7436 43.9522 -8.40458 0.00111243 1 
1522 1 18.1531 43.2499 -7.41655 0.000969585 1 
1523 1 18.6302 45.8738 -8.44377 0.000725975 1 
1524 1 19.7987 45.0842 -5.93566 0.00721122 1 
1525 1 20.2797 47.7114 -6.97967 0.00292858 1 
1526 1 17.6934 47.0116 -5.99397 0.0122472 1 
1527 1 18.1677 49.6538 -7.00271 0.00948372 1 
1528 1 19.3412 48.8701 -4.54004 0.098763 1 
1529 1 17.2618 50.7968 -4.48627 0.0897691 1 
1545 1 22.156 13.4646 -13.7861 5.74207e-05 1 
1546 1 22.6259 16.0934 -14.8184 3.41262e-05 1 
1547 1 20.0368 15.3938 -13.82 4.81828e-05 1 
1548 1 20.5075 18.0204 -14.8523 3.04017e-05 1 
1549 1 21.6855 17.2362 -12.3635 7.17924e-05 1 
1550 1 22.1563 19.8613 -13.3956 6.42066e-05 1 
1551 1 19.5668 19.1629 -12.3978 5.34544e-05 1 
1552 1 20.0383 21.7866 -13.4306 8.26998e-05 1 
1553 1 21.2176 21.003 -10.9378 0.000165987 1 
1554 1 21.6867 23.6258 -11.9701 0.000354044 1 
1555 1 19.0995 22.9289 -10.9734 0.000320184 1 
1556 1 19.5696 25.5486 -12.008 0.000539556 1 
1557 1 20.7489 24.7703 -9.50261 0.00204256 1 
1558 1 21.2171 27.3826 -10.5493 0.000912509 1 
1559 1 18.6317 26.6897 -9.54074 0.00313107 1 
1560 1 19.1026 29.3002 -10.6052 0.00149325 1 
1561 1 20.2763 28.5195 -8.07856 0.00783013 1 
1562 1 20.753 31.1299 -9.16572 0.00394458 1 
1563 1 18.1576 30.4384 -8.16851 0.00992209 1 
1564 1 18.6346 33.0608 -9.22888 0.00207896 1 
1565 1 19.8328 32.2598 -6.74105 0.046447 1 
1566 1 20.2874 34.9 -7.78331 0.00560678 1 
1567 1 17.6813 34.1955 -6.81646 0.0212292 1 
1568 1 18.162 36.8367 -7.83757 0.0015088 1 
1569 1 19.3411 36.029 -5.36693 0.0335261 1 
1570 1 19.8082 38.6856 -6.37308 0.00279232 1 
1571 1 17.2198 37.9729 -5.41531 0.0136142 1 
1572 1 17.6847 40.6211 -6.39822 0.0037731 1 
1573 1 18.8692 39.8243 -3.92268 0.0512388 1 
1574 1 19.3251 42.4643 -4.92748 0.00947993 1 
1575 1 16.723 41.7623 -3.93651 0.0469411 1 
1576 1 17.1947 44.3792 -4.95897 0.00947624 1 
1577 1 18.3351 43.5582 -2.47465 0.164956 1 
1578 1 18.8212 46.2031 -3.49357 0.15929 1 
1579 1 16.207 45.5514 -2.52428 0.365404 1 
1580 1 16.8229 48.1518 -3.5003 0.221587 1 
1581 1 18.5207 49.9945 -1.90648 2.87479 5 
1582 1 15.8489 49.2106 -1.17019 4.2827 5 
1584 1 22.1578 0.673053 -14.51 0.00011959 1 
1586 1 20.0397 2.59574 -14.5549 0.000118605 1 
1588 1 21.6895 4.4315 -13.1085 0.00027992 1 
1589 1 22.1587 7.05967 -14.1581 0.000154296 1 
1590 1 19.5693 6.35808 -13.1584 0.000190174 1 
1591 1 20.0389 8.98935 -14.2012 0.00010921 1 
1592 1 21.2188 8.1976 -11.7162 0.000386707 1 
1593 1 21.6874 10.832 -12.7538 0.000140832 1 
1594 1 19.097 10.1298 -11.7605 0.000293448 1 
1595 1 19.5668 12.7638 -12.7906 0.000106966 1 
1596 1 20.7467 11.974 -10.3119 0.000361462 1 
1597 1 21.2153 14.6081 -11.3353 0.000157199 1 
1598 1 18.6239 13.9081 -10.3455 0.000309368 1 
1599 1 19.0947 16.5373 -11.3683 0.000106856 1 
1600 1 20.2732 15.7513 -8.8839 0.000557888 1 
1601 1 20.7449 18.3778 -9.90914 0.000163197 1 
1602 1 18.1499 17.6803 -8.91681 0.00033677 1 
1603 1 18.6262 20.3049 -9.94504 0.000219719 1 
1604 1 19.8033 19.5155 -7.4592 0.0015359 1 
1605 1 20.2824 22.1452 -8.48307 0.00147352 1 
1606 1 17.685 21.4469 -7.49992 0.00250015 1 
1607 1 18.1636 24.0712 -8.51797 0.00329011 1 
1608 1 19.3656 23.2784 -6.03323 0.0303099 1 
1609 1 19.8124 25.9126 -7.01767 0.0200364 1 
1610 1 17.2157 25.2166 -6.08438 0.0375076 1 
1611 1 17.689 27.8378 -7.0709 0.0313541 1 
1612 1 18.8495 27.0456 -4.52906 0.333084 1 
1613 1 19.3126 29.6977 -5.64738 0.171751 1 
1614 1 16.8007 29.0449 -4.52886 0.328525 1 
1615 1 17.2271 31.5625 -5.71042 0.18602 1 
1616 1 18.4145 30.9832 -2.94875 2.16756 5 
1617 1 18.9063 33.3745 -4.41528 0.704591 1 
1618 1 16.1938 32.7263 -3.39463 6.12487 5 
1619 1 16.7053 35.3497 -4.40384 0.239958 1 
1620 1 18.089 34.5455 -2.1863 11.8977 5 
1621 1 18.437 37.1835 -2.9832 2.06051 5 
1622 1 15.9042 36.4016 -1.82902 4.6834 5 
1623 1 16.2659 39.1088 -3.03176 0.217636 1 
1624 1 17.4665 38.3596 -0.68498 11.4334 5 
1625 1 17.9548 40.9639 -1.4814 5.5568 5 
1626 1 15.4197 40.1062 -0.497597 5.68854 5 
1627 1 15.688 42.8264 -1.43571 5.83696 5 
1628 1 21.2189 1.81089 -12.0537 0.000500985 1 
1629 1 18.6271 1.11319 -11.0552 0.000478787 1 
1630 1 19.0998 3.73146 -12.1068 0.000444541 1 
1631 1 20.2786 2.94907 -9.59835 0.00263721 1 
1632 1 20.749 5.56762 -10.6665 0.000749537 1 
1633 1 18.161 4.8629 -9.66409 0.00498675 1 
1634 1 18.6276 7.49338 -10.7196 0.000803227 1 
1635 1 19.8086 6.69492 -8.22716 0.00914745 1 
1636 1 20.2754 9.33517 -9.28455 0.00158606 1 
1637 1 17.6803 8.63212 -8.29449 0.00170164 1 
1638 1 18.1536 11.2727 -9.32402 0.000389438 1 
1639 1 19.3285 10.4753 -6.85853 0.00404897 1 
1640 1 19.8048 13.1166 -7.87472 0.00155854 1 
1641 1 17.2126 12.4151 -6.88614 0.00262742 1 
1642 1 17.6774 15.0531 -7.90103 0.0012674 1 
1643 1 18.8566 14.2534 -5.44526 0.0124753 1 
1644 1 19.3237 16.892 -6.43154 0.00287599 1 
1645 1 16.7223 16.2014 -5.45528 0.00764742 1 
1646 1 17.1999 18.8232 -6.46555 0.00214971 1 
1647 1 18.3601 18.0344 -3.97526 0.0374884 1 
1648 1 18.8664 20.6564 -5.03043 0.0325072 1 
1649 1 16.2524 19.9562 -4.00635 0.0359916 1 