ITEM: TIMESTEP
0
ITEM: NUMBER OF ATOMS
4344
ITEM: BOX BOUNDS xy xz yz pp pp ss
-1.7473947640999999e+01 4.1302058060000000e+01 -1.7473947640999999e+01
0.0000000000000000e+00 5.8883241706000000e+01 0.0000000000000000e+00
-1.1366521326152672e+02 1.2409459411755805e+02 0.0000000000000000e+00
ITEM: ATOMS id type x y z c_csym c_cna 
1 1 39.8358 0.800898 -3.27322 0.086206 1 
2 1 39.4387 2.25837 -0.834226 7.7925 5 
3 1 33.9022 0.809064 -0.636766 5.794 5 
4 1 36.6237 1.53537 -0.973114 5.83301 5 
5 1 31.1299 0.189879 -0.87321 7.50194 5 
6 1 37.0061 0.654059 -10.4048 0.000213579 1 
7 1 39.7852 1.34197 -10.3496 0.000388686 1 
8 1 39.3976 2.75582 -7.89635 0.00635547 1 
9 1 -0.303729 2.12143 -5.54233 0.0509281 1 
10 1 33.8288 1.38204 -8.00797 0.00197422 1 
11 1 36.6161 2.06481 -7.9624 0.00265652 1 
12 1 35.4242 0.742753 -5.71878 0.0186046 1 
13 1 38.2359 1.43458 -5.66296 0.0266491 1 
14 1 36.2148 3.45596 -5.52955 0.0270896 1 
15 1 39.0004 4.17162 -5.4502 0.0154421 1 
16 1 37.8379 2.84841 -3.22351 0.0473991 1 
17 1 -0.705966 3.56297 -3.06676 0.112714 1 
18 1 38.5847 5.59515 -2.99924 0.133966 1 
19 1 -1.16587 5.0499 -0.504517 4.09748 5 
20 1 -0.595754 8.04124 -0.763392 11.2722 5 
21 1 31.0536 0.704989 -8.04264 0.00488102 1 
22 1 30.6728 2.12143 -5.54233 0.0509281 1 
23 1 33.4293 2.78312 -5.55283 0.0290203 1 
24 1 32.2737 1.49254 -3.16074 0.202983 1 
25 1 35.0233 2.11977 -3.23079 0.228467 1 
26 1 33.0072 4.17583 -3.133 0.11787 1 
27 1 35.8118 4.86535 -3.18189 0.138889 1 
28 1 34.584 3.57257 -0.92106 5.63275 5 
29 1 37.4157 4.29271 -0.83849 7.74359 2 
30 1 35.3708 6.29509 -0.859633 7.74349 2 
31 1 38.0911 7.01036 -0.423177 7.57521 5 
32 1 25.0987 0.742753 -5.71878 0.0186046 1 
33 1 27.9104 1.43458 -5.66296 0.0266491 1 
34 1 29.5103 0.800898 -3.27322 0.086206 1 
35 1 27.5124 2.84841 -3.22351 0.0473991 1 
36 1 30.2706 3.56297 -3.06676 0.112714 1 
37 1 29.1132 2.25837 -0.834226 7.7925 5 
38 1 31.8406 2.93091 -0.611761 3.98697 5 
39 1 29.8107 5.0499 -0.504517 4.09748 5 
40 1 32.5332 5.64935 -0.856641 5.82868 5 
41 1 21.9482 1.49254 -3.16074 0.202983 1 
42 1 24.6978 2.11977 -3.23079 0.228467 1 
43 1 23.5767 0.809064 -0.636766 5.794 5 
44 1 26.2982 1.53537 -0.973114 5.83301 5 
45 1 24.2585 3.57257 -0.92106 5.63275 5 
46 1 27.0902 4.29271 -0.83849 7.74359 2 
47 1 19.1848 0.800898 -3.27322 0.086206 1 
48 1 20.8044 0.189879 -0.87321 7.50194 5 
49 1 18.7877 2.25837 -0.834226 7.7925 5 
50 1 21.515 2.93091 -0.611761 3.98697 5 
51 1 13.2512 0.809064 -0.636766 5.794 5 
52 1 15.9727 1.53537 -0.973114 5.83301 5 
53 1 10.4789 0.189879 -0.87321 7.50194 5 
58 1 39.378 3.32052 -14.8889 6.36655e-05 1 
59 1 -0.33302 2.67384 -12.5961 9.36442e-05 1 
61 1 33.8195 1.94655 -14.9919 6.33896e-05 1 
62 1 36.599 2.63334 -14.9407 5.97311e-05 1 
63 1 35.4112 1.29958 -12.6987 9.72453e-05 1 
64 1 38.1911 1.98672 -12.6472 6.85134e-05 1 
65 1 36.2016 4.04729 -12.497 0.000198623 1 
66 1 38.9795 4.73539 -12.4453 0.000225294 1 
67 1 37.7963 3.39915 -10.2032 0.00067021 1 
68 1 -0.731164 4.08779 -10.1527 0.000790936 1 
69 1 38.5776 6.15067 -10.0094 0.000996333 1 
70 1 -1.13449 5.50228 -7.71793 0.00277842 1 
71 1 -0.364621 8.27033 -7.53121 0.00703382 1 
74 1 32.6313 0.613701 -12.7471 7.43361e-05 1 
75 1 30.6435 2.67384 -12.5961 9.36442e-05 1 
76 1 33.4219 3.36011 -12.5475 0.00020372 1 
77 1 32.2352 2.02748 -10.3009 0.00041424 1 
78 1 35.0156 2.71143 -10.2572 0.000654777 1 
79 1 33.0209 4.77325 -10.1101 0.00144329 1 
80 1 35.8015 5.46134 -10.0615 0.000791351 1 
81 1 34.6154 4.11683 -7.82803 0.00732455 1 
82 1 37.3965 4.80827 -7.76738 0.00256226 1 
83 1 35.3966 6.87806 -7.64147 0.00361287 1 
84 1 38.1702 7.56656 -7.59045 0.00670777 1 
85 1 36.9937 6.22472 -5.35072 0.0177211 1 
86 1 -1.54798 6.9162 -5.2997 0.0268658 1 
87 1 37.7475 8.97879 -5.20652 0.0956976 1 
88 1 -0.799797 9.70755 -5.10405 0.248791 1 
89 1 -2.04832 8.33525 -2.93725 5.99609 5 
90 1 -1.16957 11.0304 -2.2644 9.36252 5 
91 1 25.0857 1.29958 -12.6987 9.72453e-05 1 
92 1 27.8656 1.98672 -12.6472 6.85134e-05 1 
93 1 26.6806 0.654059 -10.4048 0.000213579 1 
94 1 29.4597 1.34197 -10.3496 0.000388686 1 
95 1 27.4708 3.39915 -10.2032 0.00067021 1 
96 1 30.2454 4.08779 -10.1527 0.000790936 1 
97 1 29.0721 2.75582 -7.89635 0.00635547 1 
98 1 31.8358 3.43882 -7.85124 0.0061892 1 
99 1 29.8421 5.50228 -7.71793 0.00277842 1 
100 1 32.6111 6.18854 -7.6911 0.00930499 1 
101 1 31.4292 4.8554 -5.41361 0.0184011 1 
102 1 34.2042 5.51114 -5.44523 0.0650843 1 
103 1 32.1797 7.60782 -5.29726 0.0563307 1 
104 1 34.9908 8.30669 -5.23321 0.0343714 1 
105 1 33.7849 6.90632 -3.15187 0.474831 1 
106 1 36.561 7.63363 -2.90808 0.244155 1 
107 1 34.5735 9.72901 -2.7993 0.378075 1 
108 1 37.3022 10.3122 -2.84266 5.80877 5 
109 1 36.0824 9.00674 -0.365238 9.59165 5 
110 1 -0.96828 10.8074 0.664695 7.4627 5 
111 1 37.919 11.1617 -0.441664 7.66783 5 
112 1 -1.83992 13.4222 -0.257285 7.78327 5 
113 1 22.3058 0.613701 -12.7471 7.43361e-05 1 
114 1 21.9097 2.02748 -10.3009 0.00041424 1 
115 1 24.6901 2.71143 -10.2572 0.000654777 1 
116 1 23.5033 1.38204 -8.00797 0.00197422 1 
117 1 26.2905 2.06481 -7.9624 0.00265652 1 
118 1 24.2899 4.11683 -7.82803 0.00732455 1 
119 1 27.071 4.80827 -7.76738 0.00256226 1 
120 1 25.8893 3.45596 -5.52955 0.0270896 1 
121 1 28.6749 4.17162 -5.4502 0.0154421 1 
122 1 26.6682 6.22472 -5.35072 0.0177211 1 
123 1 29.4286 6.9162 -5.2997 0.0268659 1 
124 1 28.2592 5.59515 -2.99924 0.133967 1 
125 1 30.9795 6.29742 -2.97905 0.311588 1 
126 1 28.9282 8.33525 -2.93725 5.99609 5 
127 1 31.7485 9.04891 -2.95139 5.88253 5 
128 1 30.3808 8.04124 -0.763392 11.2722 5 
129 1 33.3593 8.2794 -0.894783 10.5808 5 
130 1 31.8227 12.714 -0.223092 9.26605 5 
131 1 33.9014 10.8748 -0.231681 6.95974 5 
132 1 16.3551 0.654059 -10.4048 0.000213579 1 
133 1 19.1342 1.34197 -10.3496 0.000388686 1 
134 1 20.7281 0.704989 -8.04264 0.00488102 1 
135 1 18.7466 2.75582 -7.89635 0.00635547 1 
136 1 21.5103 3.43882 -7.85124 0.0061892 1 
137 1 20.3473 2.12143 -5.54233 0.0509281 1 
138 1 23.1038 2.78312 -5.55283 0.0290203 1 
139 1 21.1037 4.8554 -5.41361 0.0184011 1 
140 1 23.8787 5.51114 -5.44523 0.0650843 1 
141 1 22.6817 4.17583 -3.133 0.11787 1 
142 1 25.4863 4.86535 -3.18189 0.138889 1 
143 1 23.4594 6.90632 -3.15187 0.474832 1 
144 1 26.2355 7.63363 -2.90808 0.244155 1 
145 1 25.0452 6.29509 -0.859633 7.74349 2 
146 1 27.7655 7.01036 -0.423177 7.57521 5 
147 1 25.7569 9.00674 -0.365238 9.59165 5 
148 1 30.0083 10.8074 0.664695 7.4627 5 
149 1 13.1778 1.38204 -8.00797 0.00197422 1 
150 1 15.965 2.06481 -7.9624 0.00265652 1 
151 1 14.7732 0.742753 -5.71878 0.0186046 1 
152 1 17.5849 1.43458 -5.66296 0.0266491 1 
153 1 15.5638 3.45596 -5.52955 0.0270896 1 
154 1 18.3494 4.17162 -5.4502 0.0154421 1 
155 1 17.1869 2.84841 -3.22351 0.0473991 1 
156 1 19.9451 3.56297 -3.06676 0.112714 1 
157 1 17.9337 5.59515 -2.99924 0.133966 1 
158 1 20.654 6.29742 -2.97905 0.311588 1 
159 1 19.4852 5.0499 -0.504517 4.09748 5 
160 1 22.2076 5.64935 -0.856641 5.82868 5 
161 1 20.0553 8.04124 -0.763392 11.2722 5 
162 1 23.0338 8.2794 -0.894783 10.5808 5 
163 1 10.4026 0.704989 -8.04264 0.00488102 1 
164 1 10.0218 2.12143 -5.54233 0.0509281 1 
165 1 12.7783 2.78312 -5.55283 0.0290203 1 
166 1 11.6226 1.49254 -3.16074 0.202983 1 
167 1 14.3722 2.11977 -3.23079 0.228467 1 
168 1 12.3562 4.17583 -3.133 0.11787 1 
169 1 15.1608 4.86535 -3.18189 0.138889 1 
170 1 13.933 3.57257 -0.92106 5.63275 5 
171 1 16.7647 4.29271 -0.83849 7.74359 2 
172 1 14.7197 6.29509 -0.859633 7.74349 2 
173 1 17.44 7.01036 -0.423177 7.57521 5 
174 1 4.44765 0.742753 -5.71878 0.0186046 1 
175 1 7.25937 1.43458 -5.66296 0.0266491 1 
176 1 8.85929 0.800898 -3.27322 0.086206 1 
177 1 6.86134 2.84841 -3.22351 0.0473991 1 
178 1 9.61955 3.56297 -3.06676 0.112714 1 
179 1 8.4622 2.25837 -0.834226 7.7925 5 
180 1 11.1895 2.93091 -0.611761 3.98697 5 
181 1 9.15964 5.0499 -0.504517 4.09748 5 
182 1 11.8821 5.64935 -0.856641 5.82868 5 
183 1 1.29713 1.49254 -3.16074 0.202983 1 
184 1 4.04673 2.11977 -3.23079 0.228467 1 
185 1 2.92567 0.809064 -0.636766 5.794 5 
186 1 5.64719 1.53537 -0.973114 5.83301 5 
187 1 3.60747 3.57257 -0.92106 5.63275 5 
188 1 6.43914 4.29271 -0.83849 7.74359 2 
189 1 0.153382 0.189879 -0.87321 7.50194 5 
190 1 0.864009 2.93091 -0.611761 3.98697 5 
210 1 -1.13395 6.07061 -14.6813 0.000158292 1 
211 1 -0.343265 8.82386 -14.4653 0.000317007 1 
222 1 34.6104 4.69495 -14.7861 0.000112609 1 
223 1 37.3894 5.38265 -14.7338 0.00012623 1 
224 1 35.4005 7.44699 -14.5748 0.000223467 1 
225 1 38.1796 8.13525 -14.5208 0.000275737 1 
226 1 36.9887 6.80059 -12.2926 0.000431911 1 
227 1 -1.5354 7.48973 -12.2397 0.000555752 1 
228 1 37.7774 9.55809 -12.0753 0.000911945 1 
229 1 -0.745293 10.2482 -12.0164 0.00101526 1 
230 1 -1.94037 8.91253 -9.80452 0.00233989 1 
231 1 -1.14901 11.6776 -9.5613 0.00370584 1 
239 1 29.0525 3.32052 -14.8889 6.36655e-05 1 
240 1 31.8313 4.00768 -14.8375 9.10935e-05 1 
241 1 29.8426 6.07061 -14.6813 0.000158292 1 
242 1 32.6214 6.75873 -14.6284 0.000197275 1 
243 1 31.4314 5.42367 -12.395 0.00031545 1 
244 1 34.2101 6.11166 -12.3449 0.000392324 1 
245 1 32.2193 8.17941 -12.1858 0.000679683 1 
246 1 34.9981 8.86927 -12.1305 0.000745023 1 
247 1 33.8059 7.53132 -9.91235 0.00160408 1 
248 1 36.5835 8.22255 -9.85844 0.00176075 1 
249 1 34.5916 10.2971 -9.6835 0.00281187 1 
250 1 37.3719 10.9847 -9.62815 0.0034298 1 
251 1 36.1693 9.65264 -7.42759 0.0109776 1 
252 1 -2.35074 10.3411 -7.37646 0.0180595 1 
253 1 36.9742 12.4022 -7.16059 0.00708252 1 
254 1 -1.55374 13.1066 -7.08158 0.0123872 1 
255 1 -2.72687 11.7362 -4.90121 0.234671 1 
256 1 -1.97571 14.5252 -4.59348 0.293853 1 
257 1 -0.367716 13.8747 -2.44602 7.32102 5 
263 1 23.4939 1.94655 -14.9919 6.33896e-05 1 
264 1 26.2735 2.63334 -14.9407 5.97311e-05 1 
265 1 24.2849 4.69495 -14.7861 0.000112609 1 
266 1 27.0639 5.38265 -14.7338 0.00012623 1 
267 1 25.8761 4.04729 -12.497 0.000198623 1 
268 1 28.654 4.73539 -12.4453 0.000225294 1 
269 1 26.6632 6.80059 -12.2926 0.000431911 1 
270 1 29.4411 7.48973 -12.2397 0.000555753 1 
271 1 28.2521 6.15067 -10.0094 0.000996333 1 
272 1 31.0266 6.84263 -9.95974 0.0013223 1 
273 1 29.0362 8.91253 -9.80452 0.00233989 1 
274 1 31.8135 9.60437 -9.74583 0.00236645 1 
275 1 30.6119 8.27033 -7.53121 0.00703382 1 
276 1 33.3957 8.95419 -7.48824 0.00716059 1 
277 1 31.4044 11.034 -7.30335 0.0171448 1 
278 1 34.1836 11.7306 -7.21752 0.0169486 1 
279 1 32.9846 10.3794 -5.07247 0.0618177 1 
280 1 35.7468 11.0861 -4.96977 0.0958253 1 
281 1 33.777 13.1412 -4.68087 0.138689 1 
282 1 36.5413 13.7976 -4.70638 0.113267 1 
283 1 35.3504 12.4189 -2.34644 5.24986 5 
284 1 -3.22318 13.0912 -2.53865 4.61309 5 
285 1 36.1494 15.1851 -2.30324 7.722 5 
286 1 -2.3597 15.8182 -1.69827 11.2392 5 
291 1 18.727 3.32052 -14.8889 6.36655e-05 1 
292 1 21.5057 4.00768 -14.8375 9.10936e-05 1 
293 1 20.318 2.67384 -12.5961 9.36442e-05 1 
294 1 23.0964 3.36011 -12.5475 0.00020372 1 
295 1 21.1059 5.42367 -12.395 0.00031545 1 
296 1 23.8846 6.11166 -12.3449 0.000392324 1 
297 1 22.6954 4.77325 -10.1101 0.00144329 1 
298 1 25.476 5.46134 -10.0615 0.000791351 1 
299 1 23.4804 7.53132 -9.91235 0.00160408 1 
300 1 26.258 8.22255 -9.85844 0.00176076 1 
301 1 25.0711 6.87806 -7.64147 0.00361287 1 
302 1 27.8447 7.56656 -7.59045 0.00670777 1 
303 1 25.8438 9.65264 -7.42759 0.0109776 1 
304 1 28.6258 10.3411 -7.37646 0.0180595 1 
305 1 27.422 8.97879 -5.20652 0.0956975 1 
306 1 30.1767 9.70755 -5.10405 0.248791 1 
307 1 28.2497 11.7362 -4.90121 0.234671 1 
308 1 30.9726 12.4157 -4.80298 0.196781 1 
309 1 29.807 11.0304 -2.2644 9.36252 5 
310 1 32.5769 11.7299 -2.60822 6.8208 5 
311 1 30.6088 13.8747 -2.44602 7.32102 5 
312 1 33.3424 14.5146 -2.02754 6.53344 5 
314 1 13.1684 1.94655 -14.9919 6.33896e-05 1 
315 1 15.948 2.63334 -14.9407 5.97311e-05 1 
316 1 14.7602 1.29958 -12.6987 9.72453e-05 1 
317 1 17.5401 1.98672 -12.6472 6.85134e-05 1 
318 1 15.5505 4.04729 -12.497 0.000198623 1 
319 1 18.3285 4.73539 -12.4453 0.000225294 1 
320 1 17.1453 3.39915 -10.2032 0.00067021 1 
321 1 19.9199 4.08779 -10.1527 0.000790936 1 
322 1 17.9266 6.15067 -10.0094 0.000996333 1 
323 1 20.7011 6.84263 -9.95974 0.0013223 1 
324 1 19.5165 5.50228 -7.71793 0.00277842 1 
325 1 22.2855 6.18854 -7.6911 0.00930499 1 
326 1 20.2864 8.27033 -7.53121 0.00703382 1 
327 1 23.0702 8.95419 -7.48824 0.00716059 1 
328 1 21.8542 7.60782 -5.29726 0.0563307 1 
329 1 24.6652 8.30669 -5.23321 0.0343714 1 
330 1 22.6591 10.3794 -5.07247 0.0618177 1 
331 1 25.4212 11.0861 -4.96977 0.0958253 1 
332 1 24.2479 9.72901 -2.7993 0.378075 1 
333 1 26.9767 10.3122 -2.84266 5.80877 5 
334 1 25.0249 12.4189 -2.34644 5.24986 5 
335 1 27.7534 13.0912 -2.53865 4.61309 5 
336 1 27.5935 11.1617 -0.441664 7.66783 5 
337 1 29.1366 13.4222 -0.257285 7.78327 5 
340 1 11.9803 0.613701 -12.7471 7.43361e-05 1 
341 1 9.99249 2.67384 -12.5961 9.36442e-05 1 
342 1 12.7709 3.36011 -12.5475 0.00020372 1 
343 1 11.5841 2.02748 -10.3009 0.00041424 1 
344 1 14.3645 2.71143 -10.2572 0.000654777 1 
345 1 12.3698 4.77325 -10.1101 0.00144329 1 
346 1 15.1505 5.46134 -10.0615 0.000791351 1 
347 1 13.9643 4.11683 -7.82803 0.00732455 1 
348 1 16.7455 4.80827 -7.76738 0.00256226 1 
349 1 14.7456 6.87806 -7.64147 0.00361287 1 
350 1 17.5192 7.56656 -7.59045 0.00670777 1 
351 1 16.3427 6.22472 -5.35072 0.0177211 1 
352 1 19.103 6.9162 -5.2997 0.0268658 1 
353 1 17.0965 8.97879 -5.20652 0.0956976 1 
354 1 19.8512 9.70755 -5.10405 0.248791 1 
355 1 18.6027 8.33525 -2.93725 5.99609 5 
356 1 21.423 9.04891 -2.95139 5.88253 5 
357 1 19.4815 11.0304 -2.2644 9.36252 5 
358 1 22.2514 11.7299 -2.60822 6.8208 5 
359 1 21.4972 12.714 -0.223092 9.26605 5 
360 1 23.5759 10.8748 -0.231681 6.95974 5 
361 1 4.43468 1.29958 -12.6987 9.72453e-05 1 
362 1 7.21454 1.98672 -12.6472 6.85134e-05 1 
363 1 6.02955 0.654059 -10.4048 0.000213579 1 
364 1 8.80868 1.34197 -10.3496 0.000388686 1 
365 1 6.81976 3.39915 -10.2032 0.00067021 1 
366 1 9.59435 4.08779 -10.1527 0.000790936 1 
367 1 8.4211 2.75582 -7.89635 0.00635547 1 
368 1 11.1848 3.43882 -7.85124 0.0061892 1 
369 1 9.19103 5.50228 -7.71793 0.00277842 1 
370 1 11.96 6.18854 -7.6911 0.00930499 1 
371 1 10.7782 4.8554 -5.41361 0.0184011 1 
372 1 13.5532 5.51114 -5.44523 0.0650843 1 
373 1 11.5286 7.60782 -5.29726 0.0563307 1 
374 1 14.3397 8.30669 -5.23321 0.0343714 1 
375 1 13.1338 6.90632 -3.15187 0.474831 1 
376 1 15.91 7.63363 -2.90808 0.244154 1 
377 1 13.9224 9.72901 -2.7993 0.378075 1 
378 1 16.6512 10.3122 -2.84266 5.80877 5 
379 1 15.4314 9.00674 -0.365238 9.59165 5 
380 1 19.6827 10.8074 0.664695 7.4627 5 
381 1 17.268 11.1617 -0.441664 7.66783 5 
382 1 18.8111 13.4222 -0.257285 7.78327 5 
383 1 1.6548 0.613701 -12.7471 7.43361e-05 1 
384 1 1.25862 2.02748 -10.3009 0.00041424 1 
385 1 4.03904 2.71143 -10.2572 0.000654777 1 
386 1 2.8523 1.38204 -8.00797 0.00197422 1 
387 1 5.63951 2.06481 -7.9624 0.00265652 1 
388 1 3.63883 4.11683 -7.82803 0.00732455 1 
389 1 6.41998 4.80827 -7.76738 0.00256226 1 
390 1 5.23829 3.45596 -5.52955 0.0270896 1 
391 1 8.02388 4.17162 -5.4502 0.0154421 1 
392 1 6.01716 6.22472 -5.35072 0.0177211 1 
393 1 8.77753 6.9162 -5.2997 0.0268659 1 
394 1 7.60819 5.59515 -2.99924 0.133967 1 
395 1 10.3285 6.29742 -2.97905 0.311588 1 
396 1 8.27719 8.33525 -2.93725 5.99609 5 
397 1 11.0975 9.04891 -2.95139 5.88253 5 
398 1 9.72976 8.04124 -0.763392 11.2722 5 
399 1 12.7083 8.2794 -0.894783 10.5808 5 
400 1 11.1717 12.714 -0.223092 9.26605 5 
401 1 13.2504 10.8748 -0.231681 6.95974 5 
402 1 0.0771003 0.704989 -8.04264 0.00488102 1 
403 1 0.859302 3.43882 -7.85124 0.0061892 1 
404 1 2.45274 2.78312 -5.55283 0.0290203 1 
405 1 0.452684 4.8554 -5.41361 0.0184011 1 
406 1 3.22765 5.51114 -5.44523 0.0650843 1 
407 1 2.03066 4.17583 -3.133 0.11787 1 
408 1 4.83528 4.86535 -3.18189 0.138889 1 
409 1 2.80832 6.90632 -3.15187 0.474832 1 
410 1 5.58451 7.63363 -2.90808 0.244155 1 
411 1 4.39422 6.29509 -0.859633 7.74349 2 
412 1 7.11451 7.01036 -0.423177 7.57521 5 
413 1 5.10589 9.00674 -0.365238 9.59165 5 
414 1 9.35723 10.8074 0.664695 7.4627 5 
415 1 0.00299597 6.29742 -2.97905 0.311588 1 
416 1 1.55662 5.64935 -0.856641 5.82868 5 
417 1 2.38274 8.2794 -0.894783 10.5808 5 
485 1 36.1921 10.2002 -14.3527 0.000376044 1 
486 1 -2.32995 10.8883 -14.2949 0.000409266 1 
487 1 36.9871 12.9494 -14.1172 0.000384383 1 
488 1 -1.53422 13.636 -14.0561 0.000395572 1 
489 1 -2.73076 12.3131 -11.835 0.0011004 1 
490 1 -1.93192 15.0562 -11.5796 0.000657935 1 
491 1 -0.349336 14.4236 -9.28583 0.00189883 1 
510 1 30.6333 8.82386 -14.4653 0.000317007 1 
511 1 33.4125 9.51221 -14.4091 0.000336997 1 
512 1 31.4265 11.5761 -14.2356 0.000413684 1 
513 1 34.2064 12.263 -14.1765 0.00039838 1 
514 1 33.0105 10.937 -11.9558 0.000944303 1 
515 1 35.7902 11.6246 -11.8968 0.000969454 1 
516 1 33.8065 13.6859 -11.7074 0.00083384 1 
517 1 36.5883 14.3706 -11.6452 0.000625185 1 
518 1 35.3886 13.048 -9.42793 0.00113446 1 
519 1 -3.13189 13.7372 -9.35963 0.00160033 1 
520 1 36.1897 15.7875 -9.15899 0.0027715 1 
521 1 -2.32745 16.4716 -9.08788 0.00257357 1 
522 1 -3.53616 15.1582 -6.86766 0.0200695 1 
523 1 -0.744197 15.8395 -6.78208 0.0244403 1 
524 1 -2.71033 17.8689 -6.56232 0.0165586 1 
525 1 -1.13926 17.1898 -4.16808 0.22723 1 
526 1 -0.320504 19.9749 -3.90835 7.13705 5 
542 1 25.075 7.44699 -14.5748 0.000223467 1 
543 1 27.8541 8.13525 -14.5208 0.000275737 1 
544 1 25.8666 10.2002 -14.3527 0.000376044 1 
545 1 28.6466 10.8883 -14.2949 0.000409266 1 
546 1 27.4519 9.55809 -12.0753 0.000911945 1 
547 1 30.2313 10.2482 -12.0164 0.00101526 1 
548 1 28.2458 12.3131 -11.835 0.0011004 1 
549 1 31.0263 13.0008 -11.7702 0.00107207 1 
550 1 29.8275 11.6776 -9.5613 0.00370584 1 
551 1 32.6079 12.3647 -9.49145 0.00363153 1 
552 1 30.6272 14.4236 -9.28583 0.00189883 1 
553 1 33.4045 15.1038 -9.22075 0.00130474 1 
554 1 32.2004 13.7766 -6.99027 0.0110917 1 
555 1 34.9794 14.4619 -6.94604 0.00868048 1 
556 1 33.0042 16.5206 -6.72525 0.00958502 1 
557 1 35.8057 17.1895 -6.64198 0.017485 1 
558 1 34.5695 15.8628 -4.45874 0.138336 1 
559 1 -3.89756 16.5583 -4.29461 0.265675 1 
560 1 35.4214 18.5856 -4.12607 0.153263 1 
561 1 -3.10771 19.2421 -4.06018 0.131846 1 
562 1 -4.32888 17.8681 -1.59795 8.05608 5 
563 1 -1.43146 18.6259 -1.74098 9.59332 5 
564 1 -3.43646 20.6677 -1.71081 8.67613 5 
565 1 -0.720872 21.2553 -0.736249 10.0666 5 
579 1 19.5171 6.07061 -14.6813 0.000158292 1 
580 1 22.2959 6.75873 -14.6284 0.000197275 1 
581 1 20.3078 8.82386 -14.4653 0.000317007 1 
582 1 23.087 9.51221 -14.4091 0.000336997 1 
583 1 21.8938 8.17941 -12.1858 0.000679683 1 
584 1 24.6726 8.86927 -12.1305 0.000745023 1 
585 1 22.685 10.937 -11.9558 0.000944303 1 
586 1 25.4646 11.6246 -11.8968 0.000969454 1 
587 1 24.2661 10.2971 -9.6835 0.00281187 1 
588 1 27.0463 10.9847 -9.62815 0.0034298 1 
589 1 25.063 13.048 -9.42793 0.00113446 1 
590 1 27.8447 13.7372 -9.35963 0.00160033 1 
591 1 26.6487 12.4022 -7.16059 0.00708252 1 
592 1 29.4228 13.1066 -7.08158 0.0123872 1 
593 1 27.4404 15.1582 -6.86766 0.0200695 1 
594 1 30.2323 15.8395 -6.78208 0.0244403 1 
595 1 29.0008 14.5252 -4.59348 0.293853 1 
596 1 31.8312 15.1852 -4.49353 0.15514 1 
597 1 29.8373 17.1898 -4.16808 0.22723 1 
598 1 32.5778 17.9149 -4.234 1.79502 5 
599 1 31.4413 16.5801 -1.8373 6.94679 5 
600 1 34.1073 17.3887 -2.01342 8.66303 5 
601 1 32.265 19.1298 -0.469273 10.2336 5 
602 1 35.0047 19.9892 -1.59377 10.0808 5 
613 1 13.9594 4.69495 -14.7861 0.000112609 1 
614 1 16.7384 5.38265 -14.7338 0.00012623 1 
615 1 14.7495 7.44699 -14.5748 0.000223467 1 
616 1 17.5286 8.13525 -14.5208 0.000275737 1 
617 1 16.3376 6.80059 -12.2926 0.000431911 1 
618 1 19.1156 7.48973 -12.2397 0.000555752 1 
619 1 17.1264 9.55809 -12.0753 0.000911945 1 
620 1 19.9057 10.2482 -12.0164 0.00101526 1 
621 1 18.7107 8.91253 -9.80452 0.00233989 1 
622 1 21.488 9.60437 -9.74583 0.00236645 1 
623 1 19.502 11.6776 -9.5613 0.00370584 1 
624 1 22.2823 12.3647 -9.49145 0.00363153 1 
625 1 21.0789 11.034 -7.30335 0.0171448 1 
626 1 23.8581 11.7306 -7.21752 0.0169486 1 
627 1 21.8749 13.7766 -6.99027 0.0110917 1 
628 1 24.6539 14.4619 -6.94604 0.00868048 1 
629 1 23.4515 13.1412 -4.68087 0.138689 1 
630 1 26.2158 13.7976 -4.70638 0.113267 1 
631 1 24.2439 15.8628 -4.45874 0.138336 1 
632 1 27.079 16.5583 -4.29461 0.265675 1 
633 1 25.8239 15.1851 -2.30324 7.722 5 
634 1 28.6168 15.8182 -1.69827 11.2392 5 
635 1 26.6477 17.8681 -1.59795 8.05608 5 
636 1 29.5451 18.6259 -1.74098 9.59332 5 
644 1 8.40148 3.32052 -14.8889 6.36655e-05 1 
645 1 11.1802 4.00768 -14.8375 9.10935e-05 1 
646 1 9.19157 6.07061 -14.6813 0.000158292 1 
647 1 11.9704 6.75873 -14.6284 0.000197275 1 
648 1 10.7804 5.42367 -12.395 0.00031545 1 
649 1 13.5591 6.11166 -12.3449 0.000392324 1 
650 1 11.5683 8.17941 -12.1858 0.000679683 1 
651 1 14.3471 8.86927 -12.1305 0.000745023 1 
652 1 13.1549 7.53132 -9.91235 0.00160408 1 
653 1 15.9325 8.22255 -9.85844 0.00176076 1 
654 1 13.9406 10.2971 -9.6835 0.00281187 1 
655 1 16.7208 10.9847 -9.62815 0.0034298 1 
656 1 15.5182 9.65264 -7.42759 0.0109776 1 
657 1 18.3003 10.3411 -7.37646 0.0180595 1 
658 1 16.3232 12.4022 -7.16059 0.00708252 1 
659 1 19.0973 13.1066 -7.08158 0.0123872 1 
660 1 17.9242 11.7362 -4.90121 0.234671 1 
661 1 20.647 12.4157 -4.80298 0.196781 1 
662 1 18.6753 14.5252 -4.59348 0.293853 1 
663 1 21.5057 15.1852 -4.49353 0.15514 1 
664 1 20.2833 13.8747 -2.44602 7.32102 5 
665 1 23.0169 14.5146 -2.02754 6.53344 5 
666 1 21.1158 16.5801 -1.8373 6.94679 5 
667 1 23.7818 17.3887 -2.01342 8.66303 5 
672 1 2.84291 1.94655 -14.9919 6.33896e-05 1 
673 1 5.62245 2.63334 -14.9407 5.97311e-05 1 
674 1 3.63385 4.69495 -14.7861 0.000112609 1 
675 1 6.41286 5.38265 -14.7338 0.00012623 1 
676 1 5.22503 4.04729 -12.497 0.000198623 1 
677 1 8.003 4.73539 -12.4453 0.000225294 1 
678 1 6.01213 6.80059 -12.2926 0.000431911 1 
679 1 8.79011 7.48973 -12.2397 0.000555752 1 
680 1 7.60108 6.15067 -10.0094 0.000996333 1 
681 1 10.3756 6.84263 -9.95974 0.0013223 1 
682 1 8.38515 8.91253 -9.80452 0.00233989 1 
683 1 11.1625 9.60437 -9.74583 0.00236645 1 
684 1 9.96089 8.27033 -7.53121 0.00703382 1 
685 1 12.7447 8.95419 -7.48824 0.00716059 1 
686 1 10.7534 11.034 -7.30335 0.0171448 1 
687 1 13.5326 11.7306 -7.21752 0.0169486 1 
688 1 12.3335 10.3794 -5.07247 0.0618177 1 
689 1 15.0957 11.0861 -4.96977 0.0958253 1 
690 1 13.126 13.1412 -4.68087 0.138689 1 
691 1 15.8903 13.7976 -4.70638 0.113267 1 
692 1 14.6994 12.4189 -2.34644 5.24986 5 
693 1 17.4279 13.0912 -2.53865 4.61309 5 
694 1 15.4984 15.1851 -2.30324 7.722 5 
695 1 18.2913 15.8182 -1.69827 11.2392 5 
697 1 0.854717 4.00768 -14.8375 9.10936e-05 1 
698 1 2.44535 3.36011 -12.5475 0.00020372 1 
699 1 0.454838 5.42367 -12.395 0.00031545 1 
700 1 3.23361 6.11166 -12.3449 0.000392324 1 
701 1 2.04432 4.77325 -10.1101 0.00144329 1 
702 1 4.82497 5.46134 -10.0615 0.000791351 1 
703 1 2.8294 7.53132 -9.91235 0.00160408 1 
704 1 5.60698 8.22255 -9.85844 0.00176076 1 
705 1 4.42006 6.87806 -7.64147 0.00361287 1 
706 1 7.19364 7.56656 -7.59045 0.00670777 1 
707 1 5.19273 9.65264 -7.42759 0.0109776 1 
708 1 7.97478 10.3411 -7.37646 0.0180595 1 
709 1 6.77094 8.97879 -5.20652 0.0956975 1 
710 1 9.52572 9.70755 -5.10405 0.248791 1 
711 1 7.59865 11.7362 -4.90121 0.234671 1 
712 1 10.3215 12.4157 -4.80298 0.196781 1 
713 1 9.15594 11.0304 -2.2644 9.36252 5 
714 1 11.9259 11.7299 -2.60822 6.8208 5 
715 1 9.9578 13.8747 -2.44602 7.32102 5 
716 1 12.6914 14.5146 -2.02754 6.53344 5 
717 1 0.0500488 6.84263 -9.95974 0.0013223 1 
718 1 1.63451 6.18854 -7.6911 0.00930499 1 
719 1 2.41917 8.95419 -7.48824 0.00716059 1 
720 1 1.20314 7.60782 -5.29726 0.0563307 1 
721 1 4.01421 8.30669 -5.23321 0.0343714 1 
722 1 2.00802 10.3794 -5.07247 0.0618177 1 
723 1 4.77021 11.0861 -4.96977 0.0958253 1 
724 1 3.59692 9.72901 -2.7993 0.378075 1 
725 1 6.32567 10.3122 -2.84266 5.80877 5 
726 1 4.37385 12.4189 -2.34644 5.24986 5 
727 1 7.10234 13.0912 -2.53865 4.61309 5 
728 1 6.94246 11.1617 -0.441664 7.66783 5 
729 1 8.4856 13.4222 -0.257285 7.78327 5 
730 1 0.771943 9.04891 -2.95139 5.88253 5 
731 1 1.60038 11.7299 -2.60822 6.8208 5 
732 1 0.846176 12.714 -0.223092 9.26605 5 
733 1 2.92485 10.8748 -0.231681 6.95974 5 
843 1 -3.51695 15.6906 -13.8745 0.000294093 1 
844 1 -0.736086 16.375 -13.8127 0.000400391 1 
845 1 -2.71766 18.4242 -13.6353 0.000422515 1 
846 1 -1.13133 17.7885 -11.3273 0.00138053 1 
847 1 -0.330558 20.5112 -11.0979 0.00127702 1 
877 1 32.2226 14.3216 -13.9948 0.000410422 1 
878 1 35.0037 15.0059 -13.9354 0.000288482 1 
879 1 33.0214 17.0578 -13.754 0.0002767 1 
880 1 35.8031 17.7409 -13.6952 0.000283835 1 
881 1 34.6067 16.4213 -11.4553 0.0005886 1 
882 1 -3.91215 17.1048 -11.3926 0.000778686 1 
883 1 35.4108 19.1485 -11.2128 0.00074219 1 
884 1 -3.11044 19.8312 -11.1511 0.0015853 1 
885 1 -4.30105 18.5087 -8.89562 0.00276248 1 
886 1 -1.52552 19.1955 -8.82413 0.00796894 1 
887 1 -3.49607 21.2337 -8.66232 0.00811002 1 
888 1 -0.723923 21.9103 -8.62309 0.00639815 1 
889 1 -1.90905 20.5972 -6.2951 0.0602087 1 
890 1 -1.1075 23.3158 -6.17463 0.0297843 1 
917 1 26.6616 12.9494 -14.1172 0.000384383 1 
918 1 29.4423 13.636 -14.0561 0.000395572 1 
919 1 27.4596 15.6906 -13.8745 0.000294093 1 
920 1 30.2405 16.375 -13.8127 0.000400391 1 
921 1 29.0446 15.0562 -11.5796 0.000657935 1 
922 1 31.8248 15.7406 -11.514 0.000977737 1 
923 1 29.8452 17.7885 -11.3273 0.00138053 1 
924 1 32.6271 18.4675 -11.2708 0.000823951 1 
925 1 31.4272 17.1564 -9.01688 0.00501415 1 
926 1 34.2153 17.8286 -8.9628 0.00227424 1 
927 1 32.2319 19.8657 -8.78062 0.00543234 1 
928 1 35.0214 20.5498 -8.73417 0.00194098 1 
929 1 33.8272 19.2245 -6.47137 0.0137262 1 
930 1 -4.6845 19.9045 -6.41418 0.0131902 1 
931 1 34.6253 21.9383 -6.27639 0.0300945 1 
932 1 -3.87113 22.6456 -6.18239 0.0480387 1 
933 1 -5.06829 21.3053 -3.99781 0.172105 1 
934 1 -2.27281 22.0437 -3.76486 0.841158 5 
935 1 -4.24124 24.1053 -3.69732 0.484028 1 
936 1 -1.50134 24.7147 -3.73375 0.360216 1 
937 1 -2.68695 23.3838 -0.963546 8.78185 5 
938 1 -1.85492 26.229 -1.47119 11.9924 5 
962 1 21.101 11.5761 -14.2356 0.000413684 1 
963 1 23.8809 12.263 -14.1765 0.00039838 1 
964 1 21.8971 14.3216 -13.9948 0.000410422 1 
965 1 24.6782 15.0059 -13.9354 0.000288482 1 
966 1 23.481 13.6859 -11.7074 0.00083384 1 
967 1 26.2627 14.3706 -11.6452 0.000625185 1 
968 1 24.2812 16.4213 -11.4553 0.0005886 1 
969 1 27.0644 17.1048 -11.3926 0.000778686 1 
970 1 25.8642 15.7875 -9.15899 0.0027715 1 
971 1 28.6491 16.4716 -9.08788 0.00257357 1 
972 1 26.6755 18.5087 -8.89562 0.00276248 1 
973 1 29.451 19.1955 -8.82413 0.00796894 1 
974 1 28.2662 17.8689 -6.56232 0.0165586 1 
975 1 31.013 18.56 -6.48393 0.0525449 1 
976 1 29.0675 20.5972 -6.2951 0.0602087 1 
977 1 31.8431 21.2618 -6.31021 0.0268475 1 
978 1 30.656 19.9749 -3.90835 7.13705 5 
979 1 33.43 20.5902 -3.96095 6.47045 5 
980 1 31.4632 22.6404 -3.82822 0.709105 5 
981 1 34.2548 23.3647 -3.92672 0.257623 1 
982 1 32.9813 21.9556 -1.5681 7.9892 5 
983 1 -5.42582 22.7525 -1.6747 8.13598 5 
984 1 33.8886 24.8092 -1.65219 8.18007 5 
985 1 -4.65607 25.4722 -1.0158 7.6408 5 
1007 1 15.541 10.2002 -14.3527 0.000376044 1 
1008 1 18.3211 10.8883 -14.2949 0.000409266 1 
1009 1 16.336 12.9494 -14.1172 0.000384383 1 
1010 1 19.1168 13.636 -14.0561 0.000395572 1 
1011 1 17.9203 12.3131 -11.835 0.0011004 1 
1012 1 20.7008 13.0008 -11.7702 0.00107207 1 
1013 1 18.7191 15.0562 -11.5796 0.000657935 1 
1014 1 21.4993 15.7406 -11.514 0.000977737 1 
1015 1 20.3017 14.4236 -9.28583 0.00189883 1 
1016 1 23.079 15.1038 -9.22075 0.00130474 1 
1017 1 21.1016 17.1564 -9.01688 0.00501415 1 
1018 1 23.8898 17.8286 -8.9628 0.00227424 1 
1019 1 22.6787 16.5206 -6.72525 0.00958502 1 
1020 1 25.4802 17.1895 -6.64198 0.017485 1 
1021 1 23.5017 19.2245 -6.47137 0.0137262 1 
1022 1 26.292 19.9045 -6.41418 0.0131902 1 
1023 1 25.0959 18.5856 -4.12607 0.153263 1 
1024 1 27.8688 19.2421 -4.06018 0.131846 1 
1025 1 25.9083 21.3053 -3.99781 0.172105 1 
1026 1 28.7037 22.0437 -3.76486 0.841158 5 
1027 1 27.5401 20.6677 -1.71081 8.67613 5 
1028 1 30.2557 21.2553 -0.736249 10.0666 5 
1029 1 28.2896 23.3838 -0.963546 8.78185 5 
1030 1 31.0481 24.0957 -1.54964 7.25891 5 
1048 1 9.98225 8.82386 -14.4653 0.000317007 1 
1049 1 12.7615 9.51221 -14.4091 0.000336997 1 
1050 1 10.7755 11.5761 -14.2356 0.000413684 1 
1051 1 13.5553 12.263 -14.1765 0.00039838 1 
1052 1 12.3595 10.937 -11.9558 0.000944303 1 
1053 1 15.1391 11.6246 -11.8968 0.000969454 1 
1054 1 13.1555 13.6859 -11.7074 0.00083384 1 
1055 1 15.9372 14.3706 -11.6452 0.000625185 1 
1056 1 14.7375 13.048 -9.42793 0.00113446 1 
1057 1 17.5191 13.7372 -9.35963 0.00160033 1 
1058 1 15.5387 15.7875 -9.15899 0.0027715 1 
1059 1 18.3236 16.4716 -9.08788 0.00257357 1 
1060 1 17.1149 15.1582 -6.86766 0.0200695 1 
1061 1 19.9068 15.8395 -6.78208 0.0244403 1 
1062 1 17.9407 17.8689 -6.56232 0.0165586 1 
1063 1 20.6875 18.56 -6.48393 0.0525449 1 
1064 1 19.5118 17.1898 -4.16808 0.22723 1 
1065 1 22.2523 17.9149 -4.234 1.79502 5 
1066 1 20.3305 19.9749 -3.90835 7.13705 5 
1067 1 23.1044 20.5902 -3.96095 6.47045 5 
1068 1 21.9394 19.1298 -0.469273 10.2336 5 
1069 1 24.6792 19.9892 -1.59377 10.0808 5 
1070 1 22.6558 21.9556 -1.5681 7.9892 5 
1071 1 25.5507 22.7525 -1.6747 8.13598 5 
1081 1 4.42395 7.44699 -14.5748 0.000223467 1 
1082 1 7.2031 8.13525 -14.5208 0.000275737 1 
1083 1 5.21553 10.2002 -14.3527 0.000376044 1 
1084 1 7.99556 10.8883 -14.2949 0.000409266 1 
1085 1 6.80086 9.55809 -12.0753 0.000911945 1 
1086 1 9.58022 10.2482 -12.0164 0.00101526 1 
1087 1 7.59476 12.3131 -11.835 0.0011004 1 
1088 1 10.3753 13.0008 -11.7702 0.00107207 1 
1089 1 9.1765 11.6776 -9.5613 0.00370584 1 
1090 1 11.9568 12.3647 -9.49145 0.00363153 1 
1091 1 9.97618 14.4236 -9.28583 0.00189883 1 
1092 1 12.7535 15.1038 -9.22075 0.00130474 1 
1093 1 11.5494 13.7766 -6.99027 0.0110917 1 
1094 1 14.3284 14.4619 -6.94604 0.00868048 1 
1095 1 12.3532 16.5206 -6.72525 0.00958502 1 
1096 1 15.1547 17.1895 -6.64198 0.017485 1 
1097 1 13.9184 15.8628 -4.45874 0.138336 1 