ITEM: TIMESTEP
0
ITEM: NUMBER OF ATOMS
5344
ITEM: BOX BOUNDS xy xz yz pp pp ss
-5.2114875265000002e+01 8.1202247506000006e+01 -5.2114875265000002e+01
0.0000000000000000e+00 3.6767645778999999e+01 0.0000000000000000e+00
-8.7940465010835680e+01 9.2799490246292237e+01 0.0000000000000000e+00
ITEM: ATOMS id type x y z c_csym c_cna 
9199 1 -22.0109 35.8286 -13.9016 0.000150537 1 
9200 1 -18.177 35.912 -12.6057 0.000190662 1 
9201 1 -14.3428 35.9923 -11.3199 0.000167857 1 
9269 1 -19.6898 34.2143 -14.3479 0.0001243 1 
9272 1 -17.3688 32.5992 -14.7957 0.000105628 1 
9273 1 -15.8559 34.2968 -13.0546 0.00015019 1 
9275 1 -13.435 35.4986 -13.9987 7.40715e-05 1 
9276 1 -13.534 32.6809 -13.5048 0.000129829 1 
9277 1 -12.0217 34.3764 -11.771 0.000200392 1 
9278 1 -11.1128 33.8833 -14.4483 7.68684e-05 1 
9280 1 -9.69932 32.7613 -12.2213 0.000171753 1 
9362 1 -11.211 31.0653 -13.9542 0.000113122 1 
9364 1 -8.78958 32.2684 -14.8968 6.71392e-05 1 
9365 1 -8.88779 29.4502 -14.4021 9.59737e-05 1 
9366 1 -7.37608 31.147 -12.67 0.000135732 1 
9369 1 -5.05259 29.5321 -13.1169 0.000127795 1 
9452 1 -6.5645 27.8351 -14.8486 7.97435e-05 1 
9456 1 -2.72824 27.9165 -13.5618 0.000110313 1 
9458 1 -0.404073 26.3014 -14.0055 0.000105565 1 
10159 1 -36.8626 34.86 -14.1935 0.000103217 1 
10162 1 -34.5406 33.2447 -14.6405 0.00010647 1 
10163 1 -33.0242 34.9503 -12.9062 0.000180506 1 
10165 1 -30.597 36.1556 -13.8306 9.21565e-05 1 
10166 1 -30.6992 33.3339 -13.3523 0.000164256 1 
10167 1 -29.1806 35.0385 -11.6119 0.000292861 1 
10168 1 -28.2725 34.5398 -14.2757 9.06876e-05 1 
10169 1 -26.7548 36.2413 -12.53 0.000202468 1 
10170 1 -26.8544 33.4229 -12.0529 0.000266669 1 
10171 1 -25.3343 35.124 -10.301 0.00064414 1 
10172 1 -24.4313 34.6266 -12.9732 0.000180764 1 
10173 1 -22.915 36.3245 -11.222 0.000532677 1 
10174 1 -23.0137 33.5112 -10.7409 0.0005023 1 
10175 1 -21.4975 35.2076 -8.97879 0.00182212 1 
10176 1 -20.5955 34.7117 -11.6673 0.000429902 1 
10177 1 -19.0841 36.4074 -9.92005 0.000758765 1 
10178 1 -19.1842 33.596 -9.42808 0.00153488 1 
10179 1 -17.6775 35.2898 -7.6799 0.00369829 1 
10180 1 -16.7654 34.7933 -10.3721 0.000534793 1 
10181 1 -15.3538 33.6724 -8.14348 0.00142895 1 
10182 1 -13.8311 35.3609 -6.4217 0.00284401 1 
10183 1 -12.9254 34.8668 -9.08891 0.00119742 1 
10184 1 -11.4996 33.733 -6.84749 0.00992792 1 
10248 1 -28.374 31.7186 -13.7946 0.000140225 1 
10250 1 -25.9489 32.9249 -14.719 7.84112e-05 1 
10251 1 -26.0512 30.1043 -14.2362 0.000102328 1 
10252 1 -24.5322 31.8089 -12.4934 0.000205682 1 
10254 1 -22.1104 33.0126 -13.4174 0.00014468 1 
10255 1 -22.2129 30.1947 -12.9378 0.000151666 1 
10256 1 -20.6967 31.8978 -11.1868 0.00039277 1 
10257 1 -19.7904 31.3978 -13.8642 0.000113739 1 
10258 1 -18.2766 33.0973 -12.116 0.000349514 1 
10259 1 -18.3778 30.282 -11.6379 0.000289331 1 
10260 1 -16.866 31.9806 -9.88388 0.0013498 1 
10261 1 -15.9552 31.4812 -12.5664 0.000289971 1 
10262 1 -14.4419 33.176 -10.8239 0.000354267 1 
10263 1 -14.5395 30.362 -10.3383 0.000742325 1 
10264 1 -13.0227 32.0517 -8.59108 0.00183559 1 
10265 1 -12.1189 31.5595 -11.2752 0.000315529 1 
10266 1 -10.6072 33.2519 -9.54136 0.000920238 1 
10267 1 -10.7019 30.4358 -9.04166 0.00111224 1 
10268 1 -9.1916 32.1246 -7.30979 0.00531913 1 
10269 1 -8.28488 31.6385 -9.99169 0.000296485 1 
10271 1 -6.87324 30.5172 -7.75508 0.00114408 1 
10338 1 -23.7303 28.4899 -14.6802 7.55799e-05 1 
10342 1 -19.8929 28.5792 -13.3858 0.000113163 1 
10344 1 -17.469 29.7819 -14.3127 8.75492e-05 1 
10345 1 -17.5704 26.9625 -13.8341 8.64732e-05 1 
10346 1 -16.0543 28.6645 -12.0889 0.00018839 1 
10347 1 -15.1461 28.1655 -14.7608 6.63262e-05 1 
10348 1 -13.6318 29.8644 -13.0167 0.000205151 1 
10349 1 -13.7295 27.0474 -12.536 0.000177761 1 
10350 1 -12.2141 28.7442 -10.787 0.000559547 1 
10351 1 -11.3083 28.2485 -13.4646 0.000159022 1 
10352 1 -9.79578 29.9442 -11.7241 0.000257608 1 
10353 1 -9.89169 27.1292 -11.2328 0.000454576 1 
10354 1 -8.38016 28.8224 -9.48879 0.000578645 1 
10355 1 -7.47351 28.3297 -12.1718 0.000229721 1 
10356 1 -5.96396 30.0252 -10.4407 0.000412513 1 
10357 1 -6.06158 27.209 -9.93719 0.000726306 1 
10358 1 -4.556 28.9028 -8.21187 0.00203138 1 
10359 1 -3.64019 28.4094 -10.8888 0.000366682 1 
10361 1 -2.22622 27.2852 -8.66111 0.00101074 1 
10431 1 -15.2462 25.346 -14.2802 7.8336e-05 1 
10434 1 -12.9227 23.7303 -14.7244 6.09711e-05 1 
10435 1 -11.4062 25.4316 -12.9806 0.000147226 1 
10437 1 -8.98557 26.6333 -13.9111 0.000130025 1 
10438 1 -9.08453 23.8167 -13.4253 0.00011262 1 
10439 1 -7.57108 25.5148 -11.6789 0.000371975 1 
10440 1 -6.66301 25.0182 -14.3568 0.000107744 1 
10441 1 -5.15096 26.7147 -12.6183 0.000197955 1 
10442 1 -5.24956 23.9 -12.1255 0.000312746 1 
10443 1 -3.73889 25.594 -10.3857 0.000510095 1 
10444 1 -2.8268 25.0995 -13.0631 0.000161113 1 
10445 1 -1.31357 26.7931 -11.3314 0.000292553 1 
10446 1 -1.41159 23.9783 -10.8297 0.000416784 1 
10525 1 -6.76273 22.2018 -13.8708 9.15862e-05 1 
10527 1 -4.33975 23.4032 -14.8019 9.5754e-05 1 
10528 1 -4.43932 20.5867 -14.3164 7.99006e-05 1 
10529 1 -2.92527 22.2849 -12.5714 0.000274706 1 
10531 1 -0.502265 23.4848 -13.5072 0.000153237 1 
10532 1 -0.599506 20.67 -13.0161 0.00022199 1 
10615 1 -2.11457 18.9717 -14.761 7.17482e-05 1 
11064 1 -50.1965 35.5806 -12.7121 0.000136961 1 
11066 1 -47.8724 33.9671 -13.1568 0.000105459 1 
11067 1 -46.3594 35.6668 -11.4341 0.000287003 1 
11068 1 -45.4481 35.1747 -14.0996 8.03713e-05 1 
11069 1 -44.0344 34.055 -11.8736 0.000119571 1 
11070 1 -42.5165 35.7583 -10.1516 0.000504628 1 
11071 1 -41.6086 35.2643 -12.8139 0.000125408 1 
11072 1 -40.1955 34.1463 -10.5896 0.000249589 1 
11073 1 -38.6783 35.8564 -8.86053 0.00104039 1 
11074 1 -37.7716 35.3576 -11.5273 0.00028798 1 
11075 1 -36.3656 34.2418 -9.31157 0.00103684 1 
11076 1 -34.8539 35.9545 -7.57744 0.00211523 1 
11077 1 -33.9371 35.4509 -10.2432 0.000598799 1 
11078 1 -32.5301 34.3339 -8.04241 0.00182941 1 
11079 1 -31.0119 36.0393 -6.30854 0.00441824 1 
11080 1 -30.0927 35.5387 -8.95545 0.000941194 1 
11081 1 -28.6688 34.4195 -6.75038 0.00213144 1 
11082 1 -27.1531 36.1145 -4.9882 0.00967965 1 
11083 1 -26.236 35.6202 -7.63442 0.00245302 1 
11084 1 -24.8125 34.4959 -5.3896 0.0128777 1 
11085 1 -23.2776 36.1942 -3.59173 0.330002 1 
11086 1 -22.3916 35.69 -6.27826 0.0101259 1 
11087 1 -20.9677 34.5578 -3.97504 0.108038 1 
11088 1 -19.4665 36.2878 -2.23961 1.27984 5 
11089 1 -18.5814 35.7842 -4.95612 0.0228508 1 
11090 1 -17.1621 34.6571 -2.74187 0.0698382 1 
11091 1 -15.5977 36.364 -1.06307 1.23969 5 
11092 1 -14.7462 35.8669 -3.77557 0.041041 1 
11093 1 -13.3949 34.7817 -1.54693 2.1435 5 
11135 1 -45.5487 32.3545 -13.5998 5.5508e-05 1 
11137 1 -43.1247 33.5615 -14.5417 4.40712e-05 1 
11138 1 -43.2261 30.7412 -14.0439 3.96866e-05 1 
11139 1 -41.7116 32.4418 -12.3158 8.11473e-05 1 
11140 1 -40.8028 31.9478 -14.9862 3.68846e-05 1 
11141 1 -39.2878 33.651 -13.2573 9.60476e-05 1 
11142 1 -39.391 30.8276 -12.7623 8.89549e-05 1 
11143 1 -37.8778 32.5321 -11.0371 0.000284992 1 
11144 1 -36.967 32.0363 -13.7047 0.000118464 1 
11145 1 -35.4524 33.7423 -11.9766 0.000323495 1 
11146 1 -35.557 30.916 -11.4888 0.000405975 1 
11147 1 -34.0442 32.6239 -9.76894 0.00116831 1 
11148 1 -33.1284 32.1257 -12.4256 0.000327236 1 
11149 1 -31.6114 33.8327 -10.6947 0.000512367 1 
11150 1 -31.7141 31.0059 -10.2166 0.000987784 1 
11151 1 -30.193 32.714 -8.49059 0.00150024 1 
11152 1 -29.282 32.2159 -11.1365 0.000482902 1 
11153 1 -27.7595 33.921 -9.39384 0.000941358 1 
11154 1 -27.8606 31.0982 -8.91892 0.00138689 1 
11155 1 -26.335 32.8032 -7.16778 0.00301741 1 
11156 1 -25.4348 32.3074 -9.82672 0.00074137 1 
11157 1 -23.9132 34.0077 -8.06264 0.00201884 1 
11158 1 -24.0191 31.1954 -7.59263 0.00211931 1 
11159 1 -22.4998 32.8925 -5.80774 0.00732124 1 
11160 1 -21.6002 32.3981 -8.5024 0.00147705 1 
11161 1 -20.0872 34.0934 -6.72149 0.00853367 1 
11162 1 -20.1988 31.2868 -6.26335 0.00701565 1 
11163 1 -18.6956 32.976 -4.45299 0.069852 1 
11164 1 -17.7822 32.4812 -7.18681 0.00873774 1 
11165 1 -16.2736 34.1698 -5.45901 0.0110966 1 
11166 1 -16.3797 31.3649 -4.97035 0.0224851 1 
11167 1 -14.8565 33.0574 -3.26598 0.066045 1 
11168 1 -13.9342 32.5472 -5.922 0.00451921 1 
11169 1 -12.4103 34.2231 -4.18934 0.0814063 1 
11170 1 -12.5298 31.397 -3.69714 0.136593 1 
11171 1 -10.9394 32.8786 -2.00173 6.16862 5 
11172 1 -10.0451 32.6115 -4.59167 0.16427 1 
11174 1 -8.59133 31.3638 -2.19088 6.23349 5 
11224 1 -40.9044 29.1268 -14.4902 4.03052e-05 1 
11227 1 -38.5823 27.512 -14.9376 5.0884e-05 1 
11228 1 -37.0695 29.2123 -13.211 0.000126116 1 
11230 1 -34.644 30.4208 -14.1522 0.00013625 1 
11231 1 -34.7455 27.5973 -13.6577 0.0001326 1 
11232 1 -33.2311 29.2999 -11.9363 0.000411742 1 
11233 1 -32.3191 28.8058 -14.5967 0.000115164 1 
11234 1 -30.8018 30.5099 -12.8689 0.000268947 1 
11235 1 -30.9044 27.6857 -12.3764 0.000258115 1 
11236 1 -29.3846 29.3909 -10.6516 0.00066798 1 
11237 1 -28.477 28.8957 -13.3086 0.00017039 1 
11238 1 -26.9568 30.6017 -11.5732 0.000353946 1 
11239 1 -27.0619 27.7784 -11.0863 0.000352771 1 
11240 1 -25.5407 29.4872 -9.34856 0.000858443 1 
11241 1 -24.6368 28.9884 -12.0132 0.00024536 1 
11242 1 -23.1175 30.695 -10.2656 0.000534286 1 
11243 1 -23.2266 27.8744 -9.79156 0.000681559 1 
11244 1 -21.71 29.5832 -8.03832 0.00144734 1 
11245 1 -20.8017 29.0803 -10.7147 0.000396681 1 
11246 1 -19.288 30.7843 -8.95774 0.00131022 1 
11247 1 -19.3961 27.9658 -8.49988 0.00135844 1 
11248 1 -17.8823 29.6672 -6.74673 0.00265139 1 
11249 1 -16.9654 29.1654 -9.41833 0.000562186 1 
11250 1 -15.4535 30.8622 -7.66015 0.0031514 1 
11251 1 -15.5471 28.0459 -7.2072 0.0012966 1 
11252 1 -14.0332 29.7366 -5.44651 0.00881873 1 
11253 1 -13.117 29.2398 -8.10816 0.00276475 1 
11254 1 -11.5929 30.9213 -6.34536 0.0145901 1 
11255 1 -11.6895 28.1102 -5.86195 0.0146023 1 
11256 1 -10.154 29.8004 -4.0841 0.229832 1 
11257 1 -9.28565 29.3082 -6.80186 0.00370284 1 
11258 1 -7.78303 30.9992 -5.06688 0.0711935 1 
11259 1 -7.87899 28.1782 -4.54548 0.0725002 1 
11260 1 -6.38209 29.9184 -2.83531 1.47687 5 
11261 1 -5.47036 29.3972 -5.51803 0.0113921 1 
11263 1 -4.03656 28.2731 -3.32254 0.0365778 1 
11317 1 -32.4207 25.9835 -14.101 7.99589e-05 1 
11320 1 -30.0972 24.37 -14.5435 4.25282e-05 1 
11321 1 -28.5808 26.0726 -12.8157 0.000122975 1 
11323 1 -26.1554 27.2821 -13.7501 0.000109575 1 
11324 1 -26.26 24.4589 -13.2594 9.28981e-05 1 
11325 1 -24.7437 26.1652 -11.5291 0.000280077 1 
11326 1 -23.8349 25.6676 -14.1955 9.8402e-05 1 
11327 1 -22.3183 27.3738 -12.4595 0.000200008 1 
11328 1 -22.4248 24.5496 -11.9788 0.000310666 1 
11329 1 -20.9097 26.2579 -10.2452 0.000583143 1 
11330 1 -19.9971 25.7574 -12.9088 0.00017281 1 
11331 1 -18.4809 27.4629 -11.1675 0.00028373 1 
11332 1 -18.5845 24.6392 -10.6975 0.000489981 1 
11333 1 -17.0664 26.345 -8.95844 0.000903156 1 
11334 1 -16.1545 25.8448 -11.6158 0.000272599 1 
11335 1 -14.6359 27.5461 -9.8669 0.000640425 1 
11336 1 -14.7343 24.7266 -9.39824 0.000914431 1 
11337 1 -13.2119 26.4256 -7.64003 0.00253397 1 
11338 1 -12.3104 25.9291 -10.3084 0.000555592 1 
11339 1 -10.7939 27.6216 -8.54922 0.00194516 1 
11340 1 -10.8913 24.8109 -8.07196 0.00169107 1 
11341 1 -9.37422 26.4929 -6.29477 0.00836009 1 
11342 1 -8.47627 26.01 -8.9932 0.00152637 1 
11343 1 -6.96948 27.7006 -7.24263 0.00220156 1 
11344 1 -7.06861 24.892 -6.74021 0.00730207 1 
11345 1 -5.56927 26.5771 -4.98895 0.0155524 1 
11346 1 -4.65543 26.088 -7.70043 0.00295394 1 
11347 1 -3.14627 27.7795 -5.99573 0.00738238 1 
11348 1 -3.25089 24.9662 -5.47682 0.00912816 1 
11349 1 -1.72957 26.6612 -3.78981 0.038895 1 
11350 1 -0.805303 26.1592 -6.43186 0.00293194 1 
11407 1 -27.7752 22.756 -14.9883 3.51796e-05 1 
11411 1 -23.9393 22.8438 -13.707 0.000113994 1 
11413 1 -21.5132 24.0519 -14.643 0.000100606 1 
11414 1 -21.6162 21.2279 -14.1547 0.000130404 1 
11415 1 -20.1011 22.9326 -12.4282 0.000312162 1 
11417 1 -17.6725 24.1404 -13.3556 0.000153437 1 
11418 1 -17.7747 21.3162 -12.8719 0.000255064 1 
11419 1 -16.2557 23.0218 -11.1401 0.000460052 1 
11420 1 -15.3475 22.5245 -13.7987 0.000124715 1 
11421 1 -13.829 24.2283 -12.0582 0.000229335 1 
11422 1 -13.9309 21.4067 -11.5777 0.000312329 1 
11423 1 -12.4105 23.1116 -9.83294 0.000641454 1 
11424 1 -11.5067 22.6134 -12.4997 0.000160776 1 
11425 1 -9.9898 24.3146 -10.75 0.000407714 1 
11426 1 -10.0926 21.4982 -10.2726 0.000428749 1 
11427 1 -8.57751 23.1995 -8.51307 0.00121023 1 
11428 1 -7.67117 22.7006 -11.1955 0.000323699 1 
11429 1 -6.16029 24.397 -9.44165 0.00134766 1 
11430 1 -6.2626 21.5862 -8.96605 0.00120912 1 
11431 1 -4.75815 23.2806 -7.20056 0.00770946 1 
11432 1 -3.83832 22.7825 -9.89263 0.00121876 1 
11433 1 -2.32636 24.4726 -8.15434 0.00136088 1 
11434 1 -2.42553 21.6647 -7.66594 0.00301935 1 
11435 1 -0.907902 23.3489 -5.92636 0.00474429 1 
11500 1 -19.2914 19.6124 -14.5993 0.000109344 1 
11504 1 -15.45 19.7014 -13.312 0.000153662 1 
11506 1 -13.0245 20.9096 -14.2407 8.25893e-05 1 
11507 1 -13.1279 18.0874 -13.7535 9.32845e-05 1 
11508 1 -11.6104 19.7929 -12.0179 0.000201847 1 
11509 1 -10.7027 19.295 -14.6844 5.98862e-05 1 
11510 1 -9.18616 20.9988 -12.9437 0.000116943 1 
11511 1 -9.29057 18.1785 -12.4635 0.000176904 1 
11512 1 -7.77498 19.8839 -10.7204 0.000355169 1 
11513 1 -6.86445 19.3838 -13.3901 9.9315e-05 1 
11514 1 -5.34977 21.0855 -11.6439 0.000264351 1 
11515 1 -5.45201 18.2677 -11.1709 0.000283275 1 
11516 1 -3.93687 19.9691 -9.42285 0.000593832 1 
11517 1 -3.0238 19.4696 -12.0911 0.000194449 1 
11518 1 -1.50857 21.1664 -10.3404 0.000741771 1 
11519 1 -1.60451 18.3524 -9.86704 0.000651241 1 
11594 1 -10.8065 16.4731 -14.1984 8.95731e-05 1 
11597 1 -8.48365 14.8581 -14.6449 9.95152e-05 1 
11598 1 -6.96779 16.5629 -12.9113 0.000168834 1 
11600 1 -4.54006 17.7683 -13.836 8.6451e-05 1 
11601 1 -4.64169 14.9472 -13.3563 0.000158235 1 
11602 1 -3.12355 16.6514 -11.6164 0.000283503 1 
11603 1 -2.21444 16.1533 -14.2793 8.86562e-05 1 
11604 1 -0.696969 17.8547 -12.534 0.000202024 1 
11605 1 -0.79628 15.037 -12.0557 0.00026529 1 
11688 1 -2.31559 13.3327 -13.7973 0.000140231 1 
11987 1 -51.1057 36.0713 -10.0384 0.000656105 1 
17028 2 -29.8812 26.1506 2.30145 6.6071 2 
11989 1 -47.2727 36.1566 -8.76989 0.00130996 1 
11990 1 -45.8633 35.0422 -6.53524 0.00748451 1 
11991 1 -43.4264 36.2536 -7.50019 0.00242141 1 
11992 1 -41.999 35.152 -5.27274 0.00533642 1 
11993 1 -39.5759 36.3558 -6.18862 0.00620052 1 
11994 1 -38.1673 35.2619 -3.92026 0.0916671 1 
11995 1 -35.7773 36.4646 -4.90406 0.0444104 1 
11996 1 -34.3953 35.3214 -2.73497 1.00482 5 
11997 1 -30.47 35.3951 -1.47906 0.235941 1 
11998 1 -26.8114 35.5567 -0.100701 3.66697 5 
12032 1 -48.7826 34.4573 -10.4853 0.000318526 1 
16897 2 -14.8629 32.0201 2.1357 7.93882 5 
12035 1 -46.4586 32.8469 -10.9271 0.000171442 1 
12036 1 -44.9468 34.5485 -9.20701 0.000656452 1 
16405 2 11.1924 13.6421 2.1358 7.89992 5 
12038 1 -43.5315 33.4377 -6.98638 0.00338369 1 
12039 1 -42.62 32.9371 -9.64749 0.000361462 1 
12040 1 -41.0977 34.6432 -7.92268 0.00202183 1 
12041 1 -41.2003 31.8227 -7.42263 0.00234245 1 
12042 1 -39.6757 33.5379 -5.67507 0.0187952 1 
12043 1 -38.7861 33.029 -8.36525 0.0017153 1 
12044 1 -37.2804 34.7466 -6.64006 0.00803465 1 
12045 1 -37.3881 31.9122 -6.1464 0.0142506 1 
12046 1 -35.909 33.6331 -4.45024 0.11599 1 
12047 1 -34.9669 33.1255 -7.11236 0.00452541 1 
12048 1 -33.4614 34.8374 -5.38963 0.0118667 1 
12049 1 -33.5595 32.0095 -4.94864 0.0210873 1 
12050 1 -32.0063 33.711 -3.25905 0.0562173 1 
12051 1 -31.108 33.2128 -5.86188 0.00633622 1 
12052 1 -29.5804 34.922 -4.12131 0.0124166 1 
12053 1 -29.6655 32.1014 -3.66617 0.02505 1 
12054 1 -28.1947 33.8263 -1.88847 0.08612 1 
12055 1 -27.2506 33.2961 -4.5313 0.0155377 1 
12056 1 -25.7844 34.9583 -2.76011 0.337815 1 
12057 1 -25.9134 32.1553 -2.29469 0.716179 5 
12058 1 -24.2872 33.4196 -0.53889 7.6066 5 
12059 1 -23.4027 33.407 -3.12459 0.528886 1 
12060 1 -21.8278 34.8614 -1.16726 6.27584 5 
12061 1 -21.9398 31.9922 -0.703033 6.58354 5 
12062 1 -19.5334 33.4348 -1.57647 5.30117 5 
12063 1 -17.9426 35.2823 -0.105397 9.35057 5 
12064 1 -15.7934 33.4932 -0.486212 5.6873 5 
12103 1 -44.1355 31.2352 -11.3705 0.000130348 1 
12106 1 -41.8128 29.6205 -11.816 8.99812e-05 1 
12107 1 -40.2979 31.3211 -10.09 0.000370587 1 
12109 1 -38.8813 30.195 -7.86305 0.00378141 1 
12110 1 -37.98 29.7058 -10.5409 0.000422472 1 
12111 1 -36.4721 31.4123 -8.82327 0.00156985 1 
12112 1 -36.5694 28.5805 -8.32477 0.00337078 1 
12113 1 -35.0671 30.2898 -6.62948 0.00954425 1 
12114 1 -34.1466 29.7937 -9.28105 0.00154435 1 
12115 1 -32.6323 31.5035 -7.57616 0.00396376 1 
12116 1 -32.7318 28.6704 -7.07891 0.00661993 1 
12117 1 -31.2022 30.3819 -5.39401 0.0183736 1 
12118 1 -30.2936 29.8861 -8.0095 0.0027248 1 
12119 1 -28.7654 31.5951 -6.28374 0.00392531 1 
12120 1 -28.8667 28.7715 -5.78967 0.0053478 1 
12121 1 -27.3522 30.4767 -4.04787 0.0212723 1 
12122 1 -26.4395 29.9826 -6.68811 0.00390733 1 
12123 1 -24.9205 31.6831 -4.9214 0.0208389 1 
12124 1 -25.0316 28.8689 -4.43183 0.0467286 1 
12125 1 -23.53 30.6281 -2.65384 1.31272 5 
12126 1 -22.6177 30.0878 -5.35263 0.00772601 1 
12127 1 -21.1012 31.7739 -3.53681 0.145202 1 
12128 1 -21.2354 28.9687 -3.12146 0.553006 5 
12129 1 -19.6732 30.6575 -1.37558 6.13216 5 
12130 1 -18.7979 30.1563 -4.06833 0.0158677 1 
12131 1 -17.2743 31.8505 -2.24479 7.31681 5 
12132 1 -17.3519 29.0183 -1.90303 0.243867 1 
12133 1 -16.0042 30.7059 0.0147101 4.87606 5 
12134 1 -14.9651 30.2502 -2.78753 0.108445 1 
12135 1 -13.5482 31.9767 -1.03688 2.65183 5 
12136 1 -13.7205 29.1836 -0.537221 3.55909 5 
12137 1 -11.0813 30.0056 -1.49536 6.80757 5 
12138 1 -6.65755 30.9975 0.587018 8.56594 5 
12181 1 -39.4919 28.0053 -12.2643 0.000115881 1 
12183 1 -38.0788 26.8811 -10.0388 0.000662468 1 
12184 1 -37.1696 26.3901 -12.7126 0.000138448 1 
12185 1 -35.6577 28.0894 -10.9918 0.000406254 1 
12186 1 -35.7555 25.267 -10.4866 0.000319364 1 
12187 1 -34.2451 26.966 -8.77117 0.00131141 1 
12188 1 -33.332 26.4759 -11.4355 0.000285235 1 
12189 1 -31.8161 28.1788 -9.72151 0.00114226 1 
12190 1 -31.9191 25.3577 -9.2088 0.000648884 1 
12191 1 -30.3983 27.062 -7.50165 0.00240435 1 
12192 1 -29.4886 26.5667 -10.1532 0.000501274 1 
12193 1 -27.9652 28.2737 -8.42886 0.00165255 1 
12194 1 -28.0696 25.4513 -7.92447 0.00202245 1 
12195 1 -26.5474 27.1629 -6.18988 0.00622466 1 
12196 1 -25.6502 26.6639 -8.86213 0.00103297 1 
12197 1 -24.1336 28.3783 -7.1206 0.00327934 1 
12198 1 -24.2521 25.5534 -6.64148 0.00801488 1 
12199 1 -22.7488 27.2705 -4.90486 0.0441626 1 
12200 1 -21.8259 26.7612 -7.57884 0.00207868 1 
12201 1 -20.3196 28.4699 -5.82132 0.0107854 1 
12202 1 -20.4336 25.6434 -5.39073 0.0117387 1 
12203 1 -18.8928 27.3323 -3.67749 0.0420548 1 
12204 1 -17.9849 26.8454 -6.31045 0.0043572 1 
12205 1 -16.4639 28.5475 -4.55608 0.00792681 1 
12206 1 -16.554 25.7271 -4.12347 0.0122427 1 
12207 1 -15.0677 27.4377 -2.34077 0.0954265 1 
12208 1 -14.1276 26.9202 -4.99194 0.00906425 1 
12209 1 -12.6483 28.576 -3.21661 0.210786 1 
12210 1 -12.7579 25.7634 -2.76369 0.306653 1 
12211 1 -11.1831 27.138 -1.01761 7.377 5 
12212 1 -10.2567 26.9953 -3.59918 0.303282 1 
12213 1 -8.6965 28.519 -1.66462 6.35984 5 
12214 1 -8.81258 25.6768 -1.17895 6.3443 5 
12215 1 -6.4714 27.0828 -2.28805 1.42093 5 
12216 1 -4.93921 28.8992 -0.747695 6.13499 5 
12217 1 -4.98962 26.0561 -0.16677 10.7582 5 
12218 1 -2.61573 27.1409 -1.08347 0.988708 5 
12267 1 -34.8453 24.7764 -13.1582 0.000105154 1 
12269 1 -33.4313 23.6564 -10.9291 0.000168348 1 
12270 1 -32.5213 23.1635 -13.6018 5.42289e-05 1 
12271 1 -31.0068 24.8638 -11.8755 0.000116035 1 
12272 1 -31.1079 22.0443 -11.373 0.000127152 1 
12273 1 -29.5922 23.7459 -9.64971 0.000356672 1 
12274 1 -28.6838 23.2503 -12.318 7.84991e-05 1 
12275 1 -27.1676 24.9544 -10.5916 0.000246985 1 
12276 1 -27.2699 22.1294 -10.0925 0.000367679 1 
12277 1 -25.7581 23.8368 -8.3673 0.0017074 1 
12278 1 -24.8499 23.3397 -11.0393 0.000277288 1 
12279 1 -23.3377 25.049 -9.31341 0.00101192 1 
12280 1 -23.4442 22.2195 -8.82549 0.00152874 1 
12281 1 -21.9391 23.9321 -7.11401 0.0044081 1 
12282 1 -21.0167 23.4306 -9.77111 0.00113023 1 
12283 1 -19.503 25.1403 -8.0444 0.0017845 1 
12284 1 -19.6052 22.3097 -7.57813 0.00387313 1 
12285 1 -18.0815 24.0186 -5.86379 0.00627014 1 
12286 1 -17.1667 23.5199 -8.49335 0.00147323 1 
12287 1 -15.643 25.2251 -6.75349 0.00210024 1 
12288 1 -15.7397 22.4002 -6.28642 0.00392365 1 
12289 1 -14.225 24.1007 -4.53417 0.014643 1 
12290 1 -13.3108 23.6076 -7.17248 0.00302276 1 
12291 1 -11.7898 25.2997 -5.39575 0.0128875 1 
12292 1 -11.8969 22.4861 -4.92576 0.0201563 1 
12293 1 -10.3807 24.2061 -3.13057 0.483544 1 
12294 1 -9.48009 23.6927 -5.81953 0.00570887 1 
12295 1 -7.95676 25.3551 -4.00022 0.0958082 1 
12296 1 -8.08273 22.5722 -3.54806 0.127729 1 
12297 1 -6.53212 24.2282 -1.61349 5.16518 5 
12298 1 -5.67829 23.7715 -4.47333 0.0618502 1 
12299 1 -4.14974 25.4437 -2.77424 0.0674975 1 
12300 1 -4.25637 22.6462 -2.25634 7.3552 5 
12301 1 -2.79228 24.29 -0.491968 5.58536 5 
12302 1 -1.83712 23.8544 -3.2721 0.0686741 1 
12303 1 -0.541342 22.7667 -1.03938 2.81148 5 
12356 1 -30.1985 21.5498 -14.0462 3.8908e-05 1 
12358 1 -28.7849 20.4291 -11.8187 9.05899e-05 1 
12359 1 -27.8765 19.9351 -14.4928 3.98149e-05 1 
12360 1 -26.3631 21.6356 -12.7647 8.58727e-05 1 
12361 1 -26.4637 18.8132 -12.267 0.000114988 1 
12362 1 -24.952 20.5134 -10.5435 0.000412423 1 
12363 1 -24.0415 20.0198 -13.2135 0.000123988 1 
12364 1 -22.5293 21.7231 -11.4912 0.00039352 1 
12365 1 -22.6296 18.8964 -10.9943 0.000401372 1 
12366 1 -21.1189 20.6002 -9.28334 0.00150441 1 
12367 1 -20.2035 20.1065 -11.9388 0.000398233 1 
12368 1 -18.687 21.8121 -10.2192 0.000955308 1 
12369 1 -18.7887 18.9848 -9.72384 0.00111247 1 
12370 1 -17.2671 20.6917 -8.01191 0.00269144 1 
12371 1 -16.3579 20.1965 -10.6547 0.000642535 1 
12372 1 -14.835 21.9033 -8.92262 0.00136169 1 
12373 1 -14.9391 19.0786 -8.43175 0.00162585 1 
12374 1 -13.4147 20.7868 -6.69166 0.00390977 1 
12375 1 -12.5155 20.2913 -9.35329 0.00076039 1 
12376 1 -10.9961 21.9979 -7.59978 0.00180122 1 
12377 1 -11.1088 19.1816 -7.12503 0.00300711 1 
12378 1 -9.59536 20.8888 -5.36014 0.0070228 1 
12379 1 -8.68535 20.3855 -8.0451 0.0013059 1 
12380 1 -7.17669 22.0866 -6.27321 0.00630409 1 
12381 1 -7.2944 19.2724 -5.82614 0.0103408 1 
12382 1 -5.77582 20.9567 -4.07421 0.0151286 1 
12383 1 -4.85676 20.4692 -6.7531 0.00270471 1 
12384 1 -3.35634 22.1647 -4.9795 0.021204 1 
12385 1 -3.43901 19.3498 -4.56069 0.00768802 1 
12386 1 -1.94325 21.048 -2.79457 0.102511 1 
12387 1 -1.00598 20.5399 -5.45034 0.00904554 1 
12445 1 -25.5542 18.3197 -14.9402 5.10798e-05 1 
12447 1 -24.1411 17.1975 -12.7152 0.000139346 1 
12449 1 -21.7174 18.4043 -13.6602 0.000130244 1 
12450 1 -21.8167 15.5832 -13.1605 0.000108915 1 
12451 1 -20.3039 17.2823 -11.4378 0.000285037 1 
12452 1 -19.3925 16.79 -14.1034 7.86359e-05 1 
12453 1 -17.8768 18.4918 -12.379 0.000247052 1 
12454 1 -17.9787 15.6698 -11.8776 0.000110365 1 
12455 1 -16.4613 17.3722 -10.1557 0.000477631 1 
12456 1 -15.5531 16.8783 -12.8184 0.000110819 1 
12457 1 -14.0352 18.5834 -11.0898 0.000316262 1 
12458 1 -14.14 15.7598 -10.594 0.000227111 1 
12459 1 -12.6237 17.4685 -8.86525 0.000970198 1 
12460 1 -11.7163 16.9702 -11.5323 0.00025341 1 
12461 1 -10.2003 18.6784 -9.79605 0.000604195 1 
12462 1 -10.3101 15.8542 -9.31597 0.000986617 1 
12463 1 -8.79933 17.5654 -7.58216 0.00199652 1 
12464 1 -7.88173 17.0627 -10.2485 0.0005661 1 
12465 1 -6.3691 18.7694 -8.50448 0.00134709 1 
12466 1 -6.47464 15.9458 -8.04659 0.0017748 1 
12467 1 -4.95785 17.6498 -6.31334 0.00420306 1 
12468 1 -4.03703 17.1505 -8.96061 0.000917641 1 
12469 1 -2.51845 18.8504 -7.21013 0.00132223 1 
12470 1 -2.61331 16.0316 -6.75469 0.00210738 1 
12471 1 -1.09898 17.7254 -4.99385 0.00941502 1 
12536 1 -19.4926 13.97 -13.6038 5.57327e-05 1 
12538 1 -17.0688 15.1763 -14.5458 4.01032e-05 1 
12539 1 -17.1694 12.3562 -14.0479 3.98702e-05 1 
12540 1 -15.6554 14.0563 -12.32 7.28218e-05 1 
12541 1 -14.7463 13.5622 -14.9903 3.39219e-05 1 
12542 1 -13.2317 15.2646 -13.2618 8.45099e-05 1 
12543 1 -13.3341 12.4419 -12.7664 8.58947e-05 1 
12544 1 -11.8215 14.1456 -11.0413 0.000272394 1 
12545 1 -10.9101 13.6499 -13.7089 0.000111618 1 
12546 1 -9.39608 15.3552 -11.9812 0.000303402 1 
12547 1 -9.49972 12.5296 -11.4927 0.000397865 1 
12548 1 -7.98767 14.2368 -9.77293 0.0011279 1 
12549 1 -7.07114 13.7391 -12.4296 0.000316157 1 
12550 1 -5.55482 15.4453 -10.6991 0.000494776 1 
12551 1 -5.65652 12.6193 -10.2201 0.000960199 1 
12552 1 -4.13646 14.3269 -8.49431 0.00146405 1 
12553 1 -3.22428 13.8295 -11.1398 0.000473433 1 
12554 1 -1.70245 15.5345 -9.39743 0.000930697 1 
12555 1 -1.80284 12.7123 -8.92163 0.00137885 1 
12625 1 -14.847 10.7416 -14.4942 4.19558e-05 1 
12628 1 -12.524 9.12663 -14.9413 5.35123e-05 1 
12629 1 -11.0116 10.8265 -13.2148 0.0001266 1 
12631 1 -8.58613 12.0346 -14.1559 0.000132533 1 
12632 1 -8.68675 9.2115 -13.661 0.000133963 1 
12633 1 -7.17285 10.9137 -11.9396 0.000407043 1 
12634 1 -6.26042 10.4199 -14.5996 0.000114909 1 
12635 1 -4.74355 12.1238 -12.872 0.000265217 1 
12636 1 -4.84535 9.29978 -12.3788 0.000259635 1 
12637 1 -3.32617 11.005 -10.6542 0.000662015 1 
12638 1 -2.41804 10.5101 -13.3105 0.000172897 1 
12639 1 -0.898213 12.2162 -11.5753 0.000356375 1 
12640 1 -1.0028 9.3931 -11.0877 0.00036015 1 
12719 1 -6.36126 7.59772 -14.1033 8.21829e-05 1 
12722 1 -4.03732 5.98444 -14.5446 4.4014e-05 1 
12723 1 -2.5213 7.68708 -12.8169 0.00012636 1 
12808 1 -1.71513 4.37078 -14.9881 3.62573e-05 1 
18003 2 29.2355 6.91177 2.38839 0.20301 1 
12865 1 -47.0586 36.5616 -0.398963 9.71781 5 
12866 1 -43.9491 36.2745 -0.0887352 6.66493 5 
12903 1 -46.7952 35.5646 -3.88273 1.53902 5 
12905 1 -45.3587 34.5648 -1.77597 6.64043 5 
12906 1 -44.4201 33.9372 -4.32517 0.0481277 1 
12907 1 -42.8859 35.6724 -2.62811 0.125412 1 
12908 1 -42.9498 32.8724 -2.05824 0.36879 1 
12909 1 -41.5489 34.6257 -0.247898 0.715992 1 
12910 1 -40.5918 34.0769 -3.01489 0.0573448 1 
12911 1 -39.1719 35.7925 -1.24782 2.27254 5 
12912 1 -39.2806 33.0672 -0.729312 4.18803 5 
12913 1 -36.7338 34.3357 -1.64891 6.47412 5 
12914 1 -34.8552 35.427 0.583396 9.87421 5 
12915 1 -32.9435 34.1056 -0.706802 6.4875 5 
21460 2 -3.82215 7.76516 2.29836 6.5862 2 
15564 1 33.7264 4.65072 -6.0112 0.00951667 1 
15986 2 -42.909 35.3466 2.30176 6.60874 2 
12956 1 -42.1081 32.3445 -4.77548 0.024436 1 
15013 1 7.66448 23.0383 -6.00526 0.0107526 1 
12958 1 -40.7329 31.2813 -2.58112 0.544903 1 
12959 1 -39.7759 30.7093 -5.19804 0.0309433 1 
12960 1 -38.283 32.4134 -3.39382 0.364315 1 
12961 1 -38.3301 29.5037 -3.00396 0.977693 5 
12962 1 -36.7358 31.6025 -1.19003 7.24658 5 
12963 1 -35.985 30.7909 -3.96882 0.210072 1 
12964 1 -34.4704 32.5252 -2.33094 1.73261 5 
12965 1 -34.4817 29.714 -1.83373 6.21057 5 
12966 1 -32.9942 31.3372 -0.332051 11.5228 5 
12967 1 -32.0778 30.9107 -2.83043 0.152364 1 
12968 1 -30.5441 32.6137 -1.03503 0.339553 1 
12969 1 -30.6835 29.8306 -0.55691 4.68771 5 
12970 1 -28.3043 31.0154 -1.39314 0.0676469 1 
12971 1 -24.274 30.443 -0.0357107 8.077 5 
15618 1 39.8136 0.284657 -4.71334 0.0378527 1 
10275 1 -3.04623 30.6026 -6.51792 0.00605176 1 
15615 1 37.4783 1.93445 -4.28535 0.0355368 1 
13017 1 -37.4499 29.0563 -5.63474 0.0369552 1 
19179 2 -1.82447 22.8502 2.10668 8.08687 5 
13019 1 -36.0091 27.8941 -3.31287 1.6902 5 
13020 1 -35.165 27.4541 -6.10754 0.0409407 1 
13021 1 -33.6601 29.1747 -4.46325 0.115418 1 
13022 1 -33.767 26.3735 -3.88377 1.53214 5 
13023 1 -32.1989 28.1512 -2.28914 4.846 5 
13024 1 -31.304 27.5609 -4.8664 0.0204098 1 
13025 1 -29.7584 29.2817 -3.16976 0.0475442 1 
13026 1 -29.8576 26.4791 -2.62913 0.124848 1 
13027 1 -28.4148 28.22 -0.847396 0.158282 1 
13028 1 -27.4554 27.6713 -3.53177 0.0256566 1 
13029 1 -26.0266 29.3665 -1.78326 1.34408 5 
13030 1 -26.143 26.5966 -1.24842 2.25809 5 
13031 1 -23.5951 27.8858 -2.11866 6.15533 5 
13032 1 -21.7911 29.139 0.0416442 9.72135 5 
13033 1 -21.8281 26.2319 0.582198 9.8696 5 
13034 1 -19.834 27.7213 -1.1075 6.08523 5 
15566 1 35.1693 3.55308 -3.81597 0.0462335 1 
10272 1 -5.37235 32.2245 -6.03895 0.0102783 1 
15563 1 32.8072 5.17339 -3.33852 1.45919 5 
13085 1 -32.8354 25.8514 -6.53678 0.0074579 1 
15561 1 31.4048 6.24241 -5.57781 0.06934 1 
13087 1 -31.3921 24.7461 -4.32688 0.047464 1 
13088 1 -30.5036 24.2467 -6.9885 0.00337807 1 
13089 1 -28.9707 25.9599 -5.27418 0.00529391 1 
13090 1 -29.0801 23.1532 -4.77768 0.0243287 1 
13091 1 -27.5633 24.8834 -3.01601 0.056946 1 
13092 1 -26.6474 24.3454 -5.67679 0.0187713 1 
13093 1 -25.1386 26.0679 -3.92107 0.0913279 1 
13094 1 -25.2547 23.2198 -3.39595 0.357719 1 
13095 1 -23.7056 25.139 -1.6496 6.46882 5 
13096 1 -22.8808 24.439 -4.45143 0.114413 1 
13097 1 -21.3672 26.1262 -2.7353 0.999524 5 
13098 1 -21.4438 23.3295 -2.33093 1.72365 5 
13099 1 -19.916 24.9099 -0.706888 6.48497 5 
13100 1 -18.9794 24.5158 -3.25974 0.0556845 1 
13101 1 -17.4422 26.1994 -1.47975 0.236829 1 
13102 1 -17.5173 23.4176 -1.0358 0.339937 1 
13103 1 -15.1683 24.6294 -1.89172 0.086389 1 
13104 1 -13.7859 26.3558 -0.104408 3.60361 5 
13105 1 -11.2671 24.2395 -0.540976 7.59862 5 
15518 1 30.6137 6.65952 -2.71481 6.16604 5 
13160 1 -28.1723 22.6313 -7.42508 0.0023468 1 
15516 1 29.1277 7.84161 -5.11207 0.076873 1 
13162 1 -26.748 21.5174 -5.2004 0.0309762 1 
13163 1 -25.8533 21.003 -7.8658 0.00372632 1 
13164 1 -24.36 22.7192 -6.14843 0.0141305 1 
13165 1 -24.4219 19.8638 -5.63788 0.0360662 1 
13166 1 -22.957 21.5967 -3.97068 0.204598 1 
13167 1 -22.0391 21.0962 -6.63153 0.00923338 1 
13168 1 -20.5323 22.8152 -4.94972 0.0206864 1 
13169 1 -20.6328 19.9801 -4.46428 0.112162 1 
13170 1 -19.0519 21.715 -2.83117 0.151527 1 
13171 1 -18.1759 21.1873 -5.39573 0.0181428 1 
13172 1 -16.6398 22.906 -3.66835 0.0245962 1 
13173 1 -16.7329 20.0863 -3.17166 0.0468718 1 
13174 1 -15.2786 21.819 -1.3964 0.0673013 1 
13175 1 -14.3266 21.2813 -4.05018 0.0204271 1 
13176 1 -12.8857 22.9592 -2.29627 0.664266 5 
13177 1 -13 20.1708 -1.78529 1.28455 5 