ITEM: TIMESTEP
0
ITEM: NUMBER OF ATOMS
3564
ITEM: BOX BOUNDS xy xz yz pp pp ss
0.0000000000000000e+00 5.6337232360000002e+01 1.8779077452999999e+01
0.0000000000000000e+00 5.3192398423000000e+01 0.0000000000000000e+00
-1.0368420422989975e+02 1.1012720772019225e+02 0.0000000000000000e+00
ITEM: ATOMS id type x y z c_csym c_cna 
2482 1 5.63746 0.0195487 -5.85962 0.056433 1 
2483 1 28.3429 53.1203 -4.96722 0.128913 1 
2484 1 32.248 52.904 -4.06827 0.163869 1 
2485 1 36.2055 52.6428 -3.44619 6.22411 5 
2487 1 43.1681 52.7511 -14.5401 0.000163464 1 
2488 1 47.0893 52.5969 -13.5767 0.000272127 1 
2489 1 48.6106 53.1372 -11.2184 0.000884129 1 
2490 1 51.0122 52.4416 -12.6295 0.000737664 1 
2491 1 52.5366 52.9801 -10.2922 0.00364858 1 
2492 1 54.9574 52.2868 -11.6749 0.000767672 1 
2493 1 18.946 52.8215 -9.32304 0.00304195 1 
2494 1 21.3533 52.1329 -10.6858 0.00148235 1 
2495 1 22.8996 52.6737 -8.30208 0.00885418 1 
2496 1 25.2782 51.9825 -9.68909 0.00182486 1 
2497 1 26.7938 52.5317 -7.293 0.0147675 1 
2498 1 29.1804 51.8338 -8.73185 0.00149204 1 
2499 1 30.7018 52.3731 -6.36425 0.0291864 1 
2500 1 33.0834 51.6626 -7.84646 0.0257071 1 
2501 1 34.6139 52.197 -5.60401 0.192325 1 
2502 1 37.0669 51.5046 -6.89413 0.0196775 1 
2509 1 49.4884 51.9033 -14.9817 0.000169972 1 
2512 1 53.4224 51.7489 -14.0257 0.000218473 1 
2515 1 19.8092 51.595 -13.054 0.000434921 1 
2517 1 22.209 50.9019 -14.4412 0.000205284 1 
2518 1 23.745 51.4405 -12.0697 0.000632242 1 
2519 1 24.389 52.7511 -14.5401 0.000163464 1 
2520 1 26.1346 50.7473 -13.4686 0.000291496 1 
2521 1 27.6599 51.2878 -11.0983 0.000749302 1 
2522 1 28.3102 52.5969 -13.5767 0.000272127 1 
2523 1 29.8315 53.1372 -11.2184 0.000884129 1 
2524 1 30.0513 50.5921 -12.5135 0.000623682 1 
2525 1 31.5689 51.1286 -10.163 0.00364951 1 
2526 1 32.2331 52.4416 -12.6295 0.000737664 1 
2527 1 33.7576 52.9801 -10.2922 0.00364858 1 
2528 1 33.9817 50.4361 -11.5721 0.00106385 1 
2529 1 35.5177 50.9731 -9.2346 0.00274452 1 
2530 1 36.1783 52.2868 -11.6749 0.000767672 1 
2559 1 28.5286 50.0536 -14.8736 0.000162788 1 
2561 1 30.7093 51.9033 -14.9817 0.000169972 1 
2563 1 32.4546 49.8985 -13.9204 0.00030492 1 
2565 1 34.6433 51.7489 -14.0257 0.000218473 1 
2567 1 36.3967 49.7453 -12.9604 0.000453183 1 
3370 1 39.9387 52.586 -2.08853 8.15461 5 
3371 1 44.3793 52.8658 -0.724426 6.42938 5 
3372 1 46.7008 50.872 -0.212014 11.837 5 
3373 1 38.6304 51.9977 -4.57982 0.223168 1 
3374 1 41.0632 51.3703 -5.82585 0.101652 1 
3375 1 42.5755 51.8877 -3.23645 2.57168 5 
3376 1 24.4165 0.0195487 -5.85962 0.056433 1 
3377 1 44.9187 51.2567 -4.77053 0.213382 1 
3378 1 46.4549 51.947 -2.57939 10.5512 5 
3379 1 47.122 53.1203 -4.96722 0.128913 1 
3380 1 48.8796 51.0917 -3.8159 1.78692 5 
3381 1 50.5541 51.4953 -1.48217 5.64538 5 
3382 1 51.0271 52.904 -4.06827 0.163869 1 
3383 1 52.8431 50.8686 -3.1887 4.18503 5 
3384 1 54.9846 52.6428 -3.44619 6.22411 5 
3385 1 19.311 50.5042 -2.03386 8.46786 5 
3386 1 21.1596 52.586 -2.08853 8.15461 5 
3387 1 21.9203 50.2356 -0.794961 13.5561 5 
3388 1 25.6002 52.8658 -0.724426 6.42938 5 
3389 1 27.9217 50.872 -0.212014 11.837 5 
3390 1 37.7251 52.8215 -9.32304 0.00304195 1 
3391 1 37.9414 50.2846 -10.6038 0.00219192 1 
3392 1 39.5005 50.8233 -8.23034 0.0110002 1 
3393 1 40.1324 52.1329 -10.6858 0.00148235 1 
3394 1 41.6787 52.6737 -8.30208 0.00885418 1 
3395 1 41.8881 50.1313 -9.59524 0.00278039 1 
3396 1 43.4228 50.6841 -7.19867 0.0101966 1 
3397 1 44.0573 51.9825 -9.68909 0.00182486 1 
3398 1 45.5729 52.5317 -7.293 0.0147675 1 
3399 1 45.7958 49.9868 -8.60485 0.00262219 1 
3400 1 47.3246 50.55 -6.23505 0.0149125 1 
3401 1 47.9595 51.8338 -8.73185 0.00149204 1 
3402 1 49.4809 52.3731 -6.36425 0.0291864 1 
3403 1 49.6888 49.8195 -7.66992 0.0128605 1 
3404 1 51.2135 50.3451 -5.36337 0.0631431 1 
3405 1 51.8624 51.6626 -7.84646 0.0257071 1 
3406 1 53.393 52.197 -5.60401 0.192325 1 
3407 1 53.6337 49.6494 -6.80631 0.0276406 1 
3408 1 55.245 50.1279 -4.49326 0.149974 1 
3409 1 18.2878 51.5046 -6.89413 0.0196775 1 
3410 1 19.8513 51.9977 -4.57982 0.223168 1 
3411 1 20.084 49.4859 -5.82849 0.03864 1 
3412 1 21.6035 50.0559 -3.47687 5.42798 5 
3413 1 22.2841 51.3703 -5.82585 0.101652 1 
3414 1 23.7964 51.8877 -3.23645 2.57168 5 
3415 1 24.0284 49.4144 -4.66211 0.235186 1 
3416 1 25.5486 49.9801 -1.93931 6.86553 5 
3417 1 26.1396 51.2567 -4.77053 0.213382 1 
3418 1 27.6758 51.947 -2.57939 10.5512 5 
3419 1 27.9269 49.308 -3.73822 5.14973 5 
3420 1 30.1005 51.0917 -3.8159 1.78692 5 
3421 1 31.775 51.4953 -1.48217 5.64538 5 
3422 1 31.8337 49.009 -2.80937 2.99423 5 
3423 1 33.7544 49.5302 -0.914875 11.2023 5 
3424 1 34.064 50.8686 -3.1887 4.18503 5 
3425 1 35.9716 48.7865 -2.10766 6.13594 5 
3426 1 38.5883 51.595 -13.054 0.000434921 1 
3427 1 38.803 49.053 -14.3455 0.000214441 1 
3428 1 40.3439 49.5925 -11.9781 0.000858738 1 
3429 1 40.988 50.9019 -14.4412 0.000205284 1 
3430 1 42.5241 51.4405 -12.0697 0.000632242 1 
3431 1 42.7369 48.8993 -13.368 0.000356632 1 
3432 1 44.2697 49.4395 -10.9893 0.00106115 1 
3433 1 44.9137 50.7473 -13.4686 0.000291496 1 
3434 1 46.4389 51.2878 -11.0983 0.000749302 1 
3435 1 46.6549 48.7443 -12.3993 0.00049848 1 
3436 1 48.1751 49.2849 -10.032 0.0014686 1 
3437 1 48.8304 50.5921 -12.5135 0.000623682 1 
3438 1 50.3479 51.1286 -10.163 0.00364951 1 
3439 1 50.5707 48.5867 -11.456 0.00131462 1 
3440 1 52.0918 49.1206 -9.11714 0.00612159 1 
3441 1 52.7607 50.4361 -11.5721 0.00106385 1 
3442 1 54.2968 50.9731 -9.2346 0.00274452 1 
3443 1 54.5156 48.4333 -10.5154 0.00197081 1 
3444 1 18.51 48.9735 -8.17999 0.00849218 1 
3445 1 19.1623 50.2846 -10.6038 0.00219192 1 
3446 1 20.7215 50.8233 -8.23034 0.0110002 1 
3447 1 20.9285 48.287 -9.51999 0.00724842 1 
3448 1 22.4901 48.8272 -7.10473 0.0381651 1 
3449 1 23.109 50.1313 -9.59524 0.00278039 1 
3450 1 24.6437 50.6841 -7.19867 0.0101966 1 
3451 1 24.8539 48.1379 -8.49884 0.00432822 1 
3452 1 26.3804 48.7108 -6.09445 0.01491 1 
3453 1 27.0167 49.9868 -8.60485 0.00262219 1 
3454 1 28.5455 50.55 -6.23505 0.0149125 1 
3455 1 28.7516 47.9895 -7.53025 0.00424421 1 
3456 1 30.2766 48.5277 -5.12496 0.128117 1 
3457 1 30.9097 49.8195 -7.66992 0.0128605 1 
3458 1 32.4344 50.3451 -5.36337 0.0631431 1 
3459 1 32.6409 47.807 -6.64299 0.0290249 1 
3460 1 34.2147 48.3461 -4.37843 0.236555 1 
3461 1 34.8546 49.6494 -6.80631 0.0276406 1 
3462 1 36.4659 50.1279 -4.49326 0.149974 1 
3463 1 36.6513 47.6629 -5.78771 0.0894371 1 
3471 1 45.1291 48.2051 -14.7684 0.000143889 1 
3473 1 47.3077 50.0536 -14.8736 0.000162788 1 
3475 1 49.0498 48.0493 -13.8104 0.000339204 1 
3477 1 51.2336 49.8985 -13.9204 0.00030492 1 
3479 1 52.9813 47.895 -12.8606 0.000527552 1 
3481 1 17.6176 49.7453 -12.9604 0.000453183 1 
3482 1 17.8341 47.2039 -14.2504 0.000206436 1 
3483 1 19.374 47.7437 -11.8889 0.0010537 1 
3484 1 20.0239 49.053 -14.3455 0.000214441 1 
3485 1 21.5649 49.5925 -11.9781 0.000858738 1 
3486 1 21.775 47.0514 -13.2737 0.000364957 1 
3487 1 23.3168 47.5928 -10.8978 0.00145236 1 
3488 1 23.9578 48.8993 -13.368 0.000356632 1 
3489 1 25.4906 49.4395 -10.9893 0.00106115 1 
3490 1 25.702 46.8977 -12.295 0.000507555 1 
3491 1 27.2287 47.4403 -9.91292 0.00136292 1 
3492 1 27.8758 48.7443 -12.3993 0.00049848 1 
3493 1 29.396 49.2849 -10.032 0.0014686 1 
3494 1 29.6122 46.7402 -11.3353 0.00106238 1 
3495 1 31.1267 47.2777 -8.97823 0.00393252 1 
3496 1 31.7916 48.5867 -11.456 0.00131462 1 
3497 1 33.3127 49.1206 -9.11714 0.00612159 1 
3498 1 33.535 46.5824 -10.4062 0.00243529 1 
3499 1 35.0666 47.1186 -8.08018 0.0125392 1 
3500 1 35.7365 48.4333 -10.5154 0.00197081 1 
3501 1 37.2891 48.9735 -8.17999 0.00849218 1 
3502 1 37.4972 46.4316 -9.4453 0.00298271 1 
3527 1 24.1702 46.3574 -14.6685 0.000148869 1 
3529 1 26.3501 48.2051 -14.7684 0.000143889 1 
3531 1 28.0918 46.2019 -13.7024 0.00025246 1 
3533 1 30.2707 48.0493 -13.8104 0.000339204 1 
3535 1 32.0124 46.0454 -12.7517 0.000653898 1 
3537 1 34.2022 47.895 -12.8606 0.000527552 1 
3538 1 34.4216 45.3539 -14.1523 0.000183026 1 
3539 1 35.9537 45.893 -11.798 0.000619557 1 
3540 1 36.6131 47.2039 -14.2504 0.000206436 1 
4353 1 38.0901 50.5042 -2.03386 8.46786 5 
4354 1 40.6994 50.2356 -0.794961 13.5561 5 
4355 1 38.2391 48.1111 -3.39027 2.93072 5 
4356 1 38.863 49.4859 -5.82849 0.03864 1 
4357 1 40.3826 50.0559 -3.47687 5.42798 5 
4358 1 40.6121 47.4961 -4.63695 0.119789 1 
4359 1 42.0362 48.0962 -2.20257 7.02222 5 
4360 1 42.8075 49.4144 -4.66211 0.235186 1 
4361 1 44.3277 49.9801 -1.93931 6.86553 5 
4362 1 44.5073 47.4937 -3.60432 0.606988 1 
4363 1 46.4216 48.0607 -1.356 10.2492 5 
4364 1 46.706 49.308 -3.73822 5.14973 5 
4365 1 48.6172 47.1194 -2.53267 3.67345 5 
4366 1 50.6127 49.009 -2.80937 2.99423 5 
4367 1 52.5335 49.5302 -0.914875 11.2023 5 
4368 1 52.6464 46.9451 -2.02275 6.7989 5 
4369 1 54.7507 48.7865 -2.10766 6.13594 5 
4370 1 18.1701 46.4299 -1.09983 14.1644 5 
4371 1 39.0728 46.9729 -7.09672 0.0317295 1 
4372 1 39.7076 48.287 -9.51999 0.00724842 1 
4373 1 41.2692 48.8272 -7.10473 0.0381651 1 
4374 1 41.46 46.2901 -8.43327 0.00841936 1 
4375 1 42.9867 46.8497 -6.00017 0.0257766 1 
4376 1 43.633 48.1379 -8.49884 0.00432822 1 
4377 1 45.1594 48.7108 -6.09445 0.01491 1 
4378 1 45.3663 46.1498 -7.41588 0.00812906 1 
4379 1 46.9127 46.7163 -5.03475 0.127774 1 
4380 1 47.5307 47.9895 -7.53025 0.00424421 1 
4381 1 49.0557 48.5277 -5.12496 0.128117 1 
4382 1 49.2512 45.9745 -6.47648 0.0152107 1 
4383 1 50.8063 46.4803 -4.13967 0.249516 1 
4384 1 51.42 47.807 -6.64299 0.0290249 1 
4385 1 52.9938 48.3461 -4.37843 0.236555 1 
4386 1 53.1524 45.7892 -5.65674 0.122659 1 
4387 1 17.2309 46.2612 -3.53767 6.41179 5 
4388 1 17.8722 47.6629 -5.78771 0.0894371 1 
4389 1 19.46 48.1111 -3.39027 2.93072 5 
4390 1 19.644 45.642 -4.72627 0.212812 1 
4391 1 21.0235 46.2072 -2.18422 3.74271 5 
4392 1 21.833 47.4961 -4.63695 0.119789 1 
4393 1 23.2571 48.0962 -2.20257 7.02222 5 
4394 1 23.5343 45.5568 -3.48651 1.12566 5 
4395 1 25.3137 46.6367 -0.969976 12.2645 5 
4396 1 25.7283 47.4937 -3.60432 0.606988 1 
4397 1 27.6425 48.0607 -1.356 10.2492 5 
4398 1 27.4304 45.4347 -2.71608 5.90471 5 
4399 1 28.2211 45.2274 -0.23882 14.4431 5 
4400 1 29.8381 47.1194 -2.53267 3.67345 5 
4401 1 31.5296 44.9591 -1.47618 10.184 5 
4402 1 33.8673 46.9451 -2.02275 6.7989 5 
4403 1 36.9492 46.4299 -1.09983 14.1644 5 
4404 1 38.1531 47.7437 -11.8889 0.0010537 1 
4405 1 38.3641 45.2029 -13.1831 0.000345651 1 
4406 1 39.9068 45.7445 -10.8148 0.00132329 1 
4407 1 40.5541 47.0514 -13.2737 0.000364957 1 
4408 1 42.0959 47.5928 -10.8978 0.00145236 1 
4409 1 42.3013 45.0508 -12.2015 0.000558661 1 
4410 1 43.8381 45.595 -9.81786 0.00202744 1 
4411 1 44.4811 46.8977 -12.295 0.000507555 1 
4412 1 46.0078 47.4403 -9.91292 0.00136292 1 
4413 1 46.2184 44.8955 -11.2257 0.000782944 1 
4414 1 47.7351 45.4348 -8.84446 0.00316253 1 
4415 1 48.3912 46.7402 -11.3353 0.00106238 1 
4416 1 49.9058 47.2777 -8.97823 0.00393252 1 
4417 1 50.1249 44.7346 -10.282 0.0024145 1 
4418 1 51.6394 45.2686 -7.94906 0.0104679 1 
4419 1 52.3141 46.5824 -10.4062 0.00243529 1 
4420 1 53.8457 47.1186 -8.08018 0.0125392 1 
4421 1 16.5066 44.5796 -9.35148 0.0017793 1 
4422 1 18.0426 45.1185 -7.01146 0.0185353 1 
4423 1 18.7181 46.4316 -9.4453 0.00298271 1 
4424 1 20.2937 46.9729 -7.09672 0.0317295 1 
4425 1 20.4768 44.4357 -8.36804 0.00668355 1 
4426 1 22.0477 44.9863 -5.98054 0.0615866 1 
4427 1 22.6809 46.2901 -8.43327 0.00841936 1 
4428 1 24.2077 46.8497 -6.00017 0.0257766 1 
4429 1 24.4098 44.2965 -7.35141 0.00441876 1 
4430 1 25.9098 44.8632 -4.95659 0.120678 1 
4431 1 26.5872 46.1498 -7.41588 0.00812906 1 
4432 1 28.1336 46.7163 -5.03475 0.127774 1 
4433 1 28.3065 44.1322 -6.33233 0.0287011 1 
4434 1 29.8519 44.6474 -3.95061 0.280503 1 
4435 1 30.4721 45.9745 -6.47648 0.0152107 1 
4436 1 32.0272 46.4803 -4.13967 0.249516 1 
4437 1 32.196 43.9528 -5.4755 0.0280517 1 
4438 1 33.7491 44.4588 -3.15339 6.77177 5 
4439 1 34.3733 45.7892 -5.65674 0.122659 1 
4440 1 36.01 46.2612 -3.53767 6.41179 5 
4441 1 36.1504 43.7599 -4.60755 0.182567 1 
4444 1 40.7654 44.5097 -14.5737 0.00016777 1 
4446 1 42.9493 46.3574 -14.6685 0.000148869 1 
4448 1 44.6926 44.3552 -13.6013 0.0002124 1 
4450 1 46.8709 46.2019 -13.7024 0.00025246 1 
4452 1 48.6098 44.1981 -12.6413 0.000455117 1 
4454 1 50.7915 46.0454 -12.7517 0.000653898 1 
4455 1 51.0127 43.5042 -14.0496 0.000201005 1 
4456 1 52.5359 44.0425 -11.6955 0.000777503 1 
4457 1 53.2007 45.3539 -14.1523 0.000183026 1 
4458 1 17.1746 45.893 -11.798 0.000619557 1 
4459 1 17.3912 43.3526 -13.0905 0.000261056 1 
4460 1 18.9277 43.8937 -10.733 0.00104192 1 
4461 1 19.585 45.2029 -13.1831 0.000345651 1 
4462 1 21.1277 45.7445 -10.8148 0.00132329 1 
4463 1 21.3337 43.2025 -12.1156 0.000435993 1 
4464 1 22.8727 43.7445 -9.73958 0.00111268 1 
4465 1 23.5222 45.0508 -12.2015 0.000558661 1 
4466 1 25.059 45.595 -9.81786 0.00202744 1 
4467 1 25.2632 43.0501 -11.1316 0.00090068 1 
4468 1 26.7901 43.5942 -8.74128 0.00373689 1 
4469 1 27.4393 44.8955 -11.2257 0.000782944 1 
4470 1 28.956 45.4348 -8.84446 0.00316253 1 
4471 1 29.1711 42.8905 -10.1654 0.00125361 1 
4472 1 30.6771 43.4234 -7.79694 0.00795197 1 
4473 1 31.3459 44.7346 -10.282 0.0024145 1 
4474 1 32.8603 45.2686 -7.94906 0.0104679 1 
4475 1 33.0843 42.7287 -9.23572 0.00311254 1 
4476 1 34.6037 43.2556 -6.90701 0.0131607 1 
4477 1 35.2856 44.5796 -9.35148 0.0017793 1 
4478 1 36.8217 45.1185 -7.01146 0.0185353 1 
4479 1 37.0365 42.5818 -8.29647 0.0024813 1 
4500 1 19.7982 42.6606 -14.4811 0.000128156 1 
4502 1 21.9863 44.5097 -14.5737 0.00016777 1 
4504 1 23.7317 42.5078 -13.5074 0.000247364 1 
4506 1 25.9136 44.3552 -13.6013 0.0002124 1 
4507 1 26.128 41.8118 -14.9071 7.92592e-05 1 
4508 1 27.6533 42.352 -12.5383 0.000297621 1 
4510 1 29.8307 44.1981 -12.6413 0.000455117 1 
4511 1 30.051 41.6557 -13.946 0.000150891 1 
4512 1 31.5699 42.1938 -11.5859 0.000666079 1 
4513 1 32.2336 43.5042 -14.0496 0.000201005 1 
4514 1 33.7568 44.0425 -11.6955 0.000777503 1 
4515 1 33.9789 41.5015 -12.9915 0.000249431 1 
4516 1 35.5044 42.0416 -10.6407 0.000871069 1 
4517 1 36.1702 43.3526 -13.0905 0.000261056 1 
4554 1 36.3879 40.8096 -14.3864 8.62236e-05 1 
5343 1 37.8499 44.1998 -2.35117 11.3472 5 
5344 1 38.4231 45.642 -4.72627 0.212812 1 
5345 1 39.8026 46.2072 -2.18422 3.74271 5 
5346 1 40.1406 43.6614 -3.62068 5.66869 5 
5347 1 40.9271 43.9068 -0.995646 13.3288 5 
5348 1 42.3134 45.5568 -3.48651 1.12566 5 
5349 1 44.0928 46.6367 -0.969976 12.2645 5 
5350 1 44.0247 43.7438 -2.31275 8.71991 5 
5351 1 46.2094 45.4347 -2.71608 5.90471 5 
5352 1 47.0002 45.2274 -0.23882 14.4431 5 
5353 1 47.9441 43.1239 -1.50108 7.17802 5 
5354 1 50.3087 44.9591 -1.47618 10.184 5 
5355 1 38.5838 43.1146 -5.96051 0.0229237 1 
5356 1 39.2559 44.4357 -8.36804 0.00668355 1 
5357 1 40.8268 44.9863 -5.98054 0.0615866 1 
5358 1 40.9996 42.4373 -7.27661 0.0201364 1 
5359 1 42.5397 43.0083 -4.87315 0.200356 1 
5360 1 43.1889 44.2965 -7.35141 0.00441876 1 
5361 1 44.6889 44.8632 -4.95659 0.120678 1 
5362 1 44.9083 42.2928 -6.26991 0.0163157 1 
5363 1 46.3842 42.8014 -3.83792 0.327406 1 
5364 1 47.0855 44.1322 -6.33233 0.0287011 1 
5365 1 48.631 44.6474 -3.95061 0.280503 1 
5366 1 48.7919 42.1025 -5.28742 0.0557701 1 
5367 1 50.372 42.6214 -3.0017 6.91532 5 
5368 1 50.9751 43.9528 -5.4755 0.0280517 1 
5369 1 52.5281 44.4588 -3.15339 6.77177 5 
5370 1 15.1643 41.9517 -4.41848 0.0969483 1 
5371 1 16.6641 42.6581 -2.07089 6.026 5 
5372 1 17.3713 43.7599 -4.60755 0.182567 1 
5373 1 19.0708 44.1998 -2.35117 11.3472 5 
5374 1 19.1395 41.7661 -3.54284 1.86838 5 
5375 1 21.3615 43.6614 -3.62068 5.66869 5 
5376 1 22.148 43.9068 -0.995646 13.3288 5 
5377 1 22.8859 41.5989 -2.54164 2.75461 5 
5378 1 24.4085 42.0554 -0.447636 10.7154 5 
5379 1 25.2456 43.7438 -2.31275 8.71991 5 
5380 1 26.9821 41.2378 -1.49856 5.03306 5 
5381 1 29.165 43.1239 -1.50108 7.17802 5 
5382 1 37.7068 43.8937 -10.733 0.00104192 1 
5383 1 37.9192 41.3519 -12.0279 0.000431901 1 
5384 1 39.4576 41.8955 -9.66507 0.00263333 1 
5385 1 40.1128 43.2025 -12.1156 0.000435993 1 
5386 1 41.6518 43.7445 -9.73958 0.00111268 1 
5387 1 41.857 41.2011 -11.0489 0.000643573 1 
5388 1 43.3867 41.7466 -8.66818 0.00224629 1 
5389 1 44.0422 43.0501 -11.1316 0.00090068 1 
5390 1 45.5692 43.5942 -8.74128 0.00373689 1 
5391 1 45.7773 41.0469 -10.0696 0.00125565 1 
5392 1 47.2924 41.5839 -7.6815 0.00555239 1 
5393 1 47.9502 42.8905 -10.1654 0.00125361 1 
5394 1 49.4562 43.4234 -7.79694 0.00795197 1 
5395 1 49.684 40.8834 -9.11494 0.00143264 1 
5396 1 51.1903 41.416 -6.75713 0.00962963 1 
5397 1 51.8633 42.7287 -9.23572 0.00311254 1 
5398 1 15.8246 43.2556 -6.90701 0.0131607 1 
5399 1 16.0526 40.7294 -8.19207 0.00319503 1 
5400 1 17.5805 41.2671 -5.85962 0.0127699 1 
5401 1 18.2574 42.5818 -8.29647 0.0024813 1 
5402 1 19.8047 43.1146 -5.96051 0.0229237 1 
5403 1 20.0108 40.5829 -7.23788 0.0112907 1 
5404 1 21.5081 41.0888 -4.84874 0.109918 1 
5405 1 22.2205 42.4373 -7.27661 0.0201364 1 
5406 1 23.7607 43.0083 -4.87315 0.200356 1 
5407 1 23.9275 40.4376 -6.22331 0.020256 1 
5408 1 25.4095 41.0348 -3.83643 0.463921 1 
5409 1 26.1292 42.2928 -6.26991 0.0163157 1 
5410 1 27.6051 42.8014 -3.83792 0.327406 1 
5411 1 27.8433 40.2617 -5.22008 0.0525809 1 
5412 1 29.3867 40.6989 -2.83761 0.588751 5 
5413 1 30.0128 42.1025 -5.28742 0.0557701 1 
5414 1 31.593 42.6214 -3.0017 6.91532 5 
5415 1 31.7816 40.0894 -4.25745 0.0799574 1 
5416 1 33.4703 40.6816 -1.83954 8.54509 5 
5417 1 33.9434 41.9517 -4.41848 0.0969483 1 
5418 1 35.4432 42.6581 -2.07089 6.026 5 
5419 1 35.6638 39.9878 -3.4363 0.466264 1 
5420 1 37.0256 40.658 -1.20308 12.2774 5 
5421 1 38.5773 42.6606 -14.4811 0.000128156 1 
5423 1 40.324 40.6584 -13.4172 0.000182646 1 
5425 1 42.5108 42.5078 -13.5074 0.000247364 1 
5426 1 42.7241 39.9632 -14.8119 8.01089e-05 1 
5427 1 44.2527 40.5048 -12.4444 0.000303121 1 
5428 1 44.9071 41.8118 -14.9071 7.92592e-05 1 
5429 1 46.4324 42.352 -12.5383 0.000297621 1 
5430 1 46.65 39.8076 -13.8463 0.000109337 1 
5431 1 48.1711 40.3468 -11.4802 0.00039898 1 
5432 1 48.8301 41.6557 -13.946 0.000150891 1 
5433 1 50.349 42.1938 -11.5859 0.000666079 1 
5434 1 50.5737 39.6512 -12.8883 0.00020361 1 
5435 1 14.5343 40.1899 -10.5342 0.000845311 1 
5436 1 15.1999 41.5015 -12.9915 0.000249431 1 
5437 1 16.7253 42.0416 -10.6407 0.000871069 1 
5438 1 16.9469 39.4985 -11.9327 0.000274844 1 
5439 1 18.4748 40.0409 -9.58395 0.0011885 1 
5440 1 19.1402 41.3519 -12.0279 0.000431901 1 
5441 1 20.6785 41.8955 -9.66507 0.00263333 1 
5442 1 20.8867 39.3493 -10.9654 0.000519785 1 
5443 1 22.4168 39.8905 -8.59903 0.00289949 1 
5444 1 23.0779 41.2011 -11.0489 0.000643573 1 
5445 1 24.6077 41.7466 -8.66818 0.00224629 1 
5446 1 24.8158 39.197 -9.98777 0.00080055 1 
5447 1 26.3371 39.7414 -7.61523 0.00589279 1 
5448 1 26.9983 41.0469 -10.0696 0.00125565 1 
5449 1 28.5134 41.5839 -7.6815 0.00555239 1 
5450 1 28.7338 39.0372 -9.01361 0.00176464 1 
5451 1 30.2471 39.57 -6.63748 0.00944637 1 
5452 1 30.9049 40.8834 -9.11494 0.00143264 1 
5453 1 32.4112 41.416 -6.75713 0.00962963 1 
5454 1 32.6488 38.879 -8.07356 0.00373022 1 
5455 1 34.1579 39.4263 -5.73765 0.0297073 1 
5456 1 34.8317 40.7294 -8.19207 0.00319503 1 
5457 1 36.3596 41.2671 -5.85962 0.0127699 1 
5458 1 36.5806 38.7327 -7.14284 0.00516374 1 
5474 1 15.422 38.9578 -14.2878 6.18489e-05 1 
5476 1 17.6089 40.8096 -14.3864 8.62236e-05 1 
5478 1 19.3558 38.8068 -13.3244 0.000110257 1 
5480 1 21.5449 40.6584 -13.4172 0.000182646 1 
5481 1 21.7596 38.1128 -14.7176 5.42356e-05 1 
5482 1 23.2887 38.6545 -12.3548 0.00020056 1 
5483 1 23.9451 39.9632 -14.8119 8.01089e-05 1 
5484 1 25.4736 40.5048 -12.4444 0.000303121 1 
5485 1 25.6892 37.9587 -13.7511 0.0001005 1 
5486 1 27.2145 38.4992 -11.3853 0.000391844 1 
5487 1 27.8709 39.8076 -13.8463 0.000109337 1 
5488 1 29.392 40.3468 -11.4802 0.00039898 1 
5489 1 29.615 37.8019 -12.7878 0.000168362 1 
5490 1 31.1347 38.3403 -10.4271 0.0006448 1 
5491 1 31.7946 39.6512 -12.8883 0.00020361 1 
5492 1 33.3133 40.1899 -10.5342 0.000845311 1 
5493 1 33.5412 37.6458 -11.8295 0.000193924 1 
5494 1 35.0606 38.1856 -9.47805 0.0010094 1 
5495 1 35.726 39.4985 -11.9327 0.000274844 1 
5496 1 37.2539 40.0409 -9.58395 0.0011885 1 
5497 1 37.4739 37.4953 -10.8715 0.000289912 1 
5530 1 32.0186 37.1066 -14.1871 5.29416e-05 1 
5532 1 34.2011 38.9578 -14.2878 6.18489e-05 1 
5534 1 35.9483 36.9536 -13.2259 7.05928e-05 1 
6333 1 37.9186 41.7661 -3.54284 1.86838 5 
6334 1 39.5955 39.8053 -2.23606 3.00166 5 
6335 1 41.665 41.5989 -2.54164 2.75461 5 
6336 1 43.1876 42.0554 -0.447636 10.7154 5 
6337 1 43.4914 39.5782 -1.60881 5.94316 5 
6338 1 45.7612 41.2378 -1.49856 5.03306 5 
6339 1 47.2178 38.8539 -0.479575 12.9864 5 
6340 1 38.1222 39.2784 -4.82717 0.152617 1 
6341 1 38.7899 40.5829 -7.23788 0.0112907 1 
6342 1 40.2872 41.0888 -4.84874 0.109918 1 
6343 1 40.5191 38.5591 -6.1531 0.0235543 1 
6344 1 41.9887 39.0642 -3.82398 0.234528 1 
6345 1 42.7066 40.4376 -6.22331 0.020256 1 
6346 1 44.1886 41.0348 -3.83643 0.463921 1 
6347 1 44.4327 38.4307 -5.20284 0.0681688 1 
6348 1 45.9415 38.8273 -2.88011 6.292 5 
6349 1 46.6224 40.2617 -5.22008 0.0525809 1 
6350 1 48.1658 40.6989 -2.83761 0.588751 5 
6351 1 48.3709 38.2084 -4.2061 0.0696376 1 
6352 1 49.8808 38.7269 -1.82279 6.84635 5 
6353 1 50.5607 40.0894 -4.25745 0.0799574 1 
6354 1 14.6912 40.6816 -1.83954 8.54509 5 
6355 1 14.7671 38.1746 -3.20979 0.614899 1 
6356 1 16.8847 39.9878 -3.4363 0.466264 1 
6357 1 18.2465 40.658 -1.20308 12.2774 5 
6358 1 18.6459 38.097 -2.42511 6.80168 5 
6359 1 20.8164 39.8053 -2.23606 3.00166 5 
6360 1 22.4067 37.5961 -1.17356 5.36614 5 
6361 1 24.7124 39.5782 -1.60881 5.94316 5 
6362 1 28.4388 38.8539 -0.479575 12.9864 5 
6363 1 39.0028 38.0374 -8.52014 0.00241555 1 
6364 1 39.6657 39.3493 -10.9654 0.000519785 1 
6365 1 41.1958 39.8905 -8.59903 0.00289949 1 
6366 1 41.4071 37.3421 -9.90178 0.000546925 1 
6367 1 42.9262 37.8812 -7.54277 0.00272142 1 
6368 1 43.5949 39.197 -9.98777 0.00080055 1 
6369 1 45.1162 39.7414 -7.61523 0.00589279 1 
6370 1 45.3341 37.1873 -8.93231 0.00109398 1 
6371 1 46.8481 37.7127 -6.56022 0.011694 1 
6372 1 47.5129 39.0372 -9.01361 0.00176464 1 
6373 1 49.0262 39.57 -6.63748 0.00944637 1 
6374 1 49.2585 37.0273 -7.96916 0.00629668 1 
6375 1 50.7901 37.5714 -5.61081 0.0587435 1 
6376 1 13.8697 38.879 -8.07356 0.00373022 1 
6377 1 15.3788 39.4263 -5.73765 0.0297073 1 
6378 1 15.6193 36.8728 -7.01052 0.00958387 1 
6379 1 17.1244 37.4457 -4.69083 0.0617753 1 
6380 1 17.8015 38.7327 -7.14284 0.00516374 1 
6381 1 19.3431 39.2784 -4.82717 0.152617 1 
6382 1 19.5609 36.7391 -6.07779 0.0272198 1 
6383 1 21.0571 37.2917 -3.63793 1.51342 5 
6384 1 21.74 38.5591 -6.1531 0.0235543 1 
6385 1 23.2096 39.0642 -3.82398 0.234528 1 
6386 1 23.4712 36.5471 -5.09757 0.0274296 1 
6387 1 24.987 37.0793 -2.78902 5.46969 5 
6388 1 25.6536 38.4307 -5.20284 0.0681688 1 
6389 1 27.1624 38.8273 -2.88011 6.292 5 
6390 1 27.415 36.328 -4.11 0.137523 1 
6391 1 28.9711 36.6363 -1.7498 4.93306 5 
6392 1 29.5918 38.2084 -4.2061 0.0696376 1 
6393 1 31.1017 38.7269 -1.82279 6.84635 5 
6394 1 31.3058 36.2084 -3.27542 0.545672 1 
6395 1 32.8266 36.5865 -1.10488 11.3385 5 
6396 1 33.5462 38.1746 -3.20979 0.614899 1 
6397 1 35.3314 36.2313 -2.17028 0.929919 1 
6398 1 37.425 38.097 -2.42511 6.80168 5 
6399 1 38.1349 38.8068 -13.3244 0.000110257 1 
6400 1 38.3529 36.2608 -14.6206 3.26409e-05 1 
6401 1 39.8805 36.8024 -12.2623 0.000124227 1 
6402 1 40.5387 38.1128 -14.7176 5.42356e-05 1 
6403 1 42.0678 38.6545 -12.3548 0.00020056 1 
6404 1 42.2837 36.108 -13.657 6.49591e-05 1 
6405 1 43.8105 36.6488 -11.2962 0.000234542 1 
6406 1 44.4683 37.9587 -13.7511 0.0001005 1 
6407 1 45.9935 38.4992 -11.3853 0.000391844 1 
6408 1 46.2138 35.9524 -12.6929 0.000205352 1 
6409 1 47.7381 36.4907 -10.3311 0.000890285 1 
6410 1 48.3941 37.8019 -12.7878 0.000168362 1 
6411 1 49.9137 38.3403 -10.4271 0.0006448 1 
6412 1 50.1425 35.7948 -11.7278 0.000193213 1 
6413 1 14.1054 36.3327 -9.36752 0.000687653 1 
6414 1 14.7621 37.6458 -11.8295 0.000193924 1 
6415 1 16.2816 38.1856 -9.47805 0.0010094 1 
6416 1 16.5109 35.6409 -10.7668 0.000325525 1 
6417 1 18.0322 36.1851 -8.41681 0.00188306 1 
6418 1 18.6949 37.4953 -10.8715 0.000289912 1 
6419 1 20.2237 38.0374 -8.52014 0.00241555 1 
6420 1 20.4417 35.4909 -9.80662 0.000735159 1 
6421 1 21.962 36.0233 -7.44236 0.00727351 1 
6422 1 22.6281 37.3421 -9.90178 0.000546925 1 
6423 1 24.1472 37.8812 -7.54277 0.00272142 1 
6424 1 24.3688 35.3349 -8.84602 0.000875274 1 
6425 1 25.8927 35.8662 -6.48971 0.0106384 1 
6426 1 26.555 37.1873 -8.93231 0.00109398 1 
6427 1 28.069 37.7127 -6.56022 0.011694 1 
6428 1 28.3002 35.1687 -7.88949 0.00427715 1 
6429 1 29.814 35.6799 -5.55414 0.0512195 1 
6430 1 30.4794 37.0273 -7.96916 0.00629668 1 
6431 1 32.011 37.5714 -5.61081 0.0587435 1 
6432 1 32.2417 35.0176 -6.89696 0.0131977 1 
6433 1 33.7529 35.5815 -4.48601 0.208492 1 
6434 1 34.3984 36.8728 -7.01052 0.00958387 1 
6435 1 35.9035 37.4457 -4.69083 0.0617753 1 
6436 1 36.1522 34.8945 -5.94984 0.0166576 1 
6447 1 48.6174 35.2562 -14.0883 7.66735e-05 1 
6449 1 13.2395 37.1066 -14.1871 5.29416e-05 1 
6451 1 14.9878 35.1008 -13.1241 8.05318e-05 1 
6453 1 17.1692 36.9536 -13.2259 7.05928e-05 1 
6454 1 17.3905 34.4079 -14.5198 3.70276e-05 1 
6455 1 18.9159 34.9491 -12.1622 0.000120757 1 
6456 1 19.5738 36.2608 -14.6206 3.26409e-05 1 
6457 1 21.1014 36.8024 -12.2623 0.000124227 1 
6458 1 21.3192 34.256 -13.5593 5.95255e-05 1 
6459 1 22.8452 34.7966 -11.2025 0.000193615 1 
6460 1 23.5046 36.108 -13.657 6.49591e-05 1 
6461 1 25.0314 36.6488 -11.2962 0.000234542 1 
6462 1 25.2503 34.1018 -12.5997 0.000180944 1 
6463 1 26.7773 34.6398 -10.2441 0.000807736 1 
6464 1 27.4348 35.9524 -12.6929 0.000205352 1 
6465 1 28.959 36.4907 -10.3311 0.000890285 1 
6466 1 29.1857 33.9443 -11.6332 0.000417961 1 
6467 1 30.7141 34.4807 -9.27047 0.00151764 1 
6468 1 31.3634 35.7948 -11.7278 0.000193213 1 
6469 1 32.8844 36.3327 -9.36752 0.000687653 1 
6470 1 33.1154 33.7879 -10.6621 0.000371137 1 
6471 1 34.6367 34.3301 -8.29983 0.00165687 1 
6472 1 35.29 35.6409 -10.7668 0.000325525 1 
6473 1 36.8113 36.1851 -8.41681 0.00188306 1 
6474 1 37.0385 33.6382 -9.69836 0.000567027 1 
6499 1 23.7229 33.5615 -14.956 4.67773e-05 1 
6503 1 27.6564 33.4061 -13.9926 0.000122401 1 
6505 1 29.8383 35.2562 -14.0883 7.66735e-05 1 
6507 1 31.5889 33.2491 -13.0239 0.000163846 1 
6509 1 33.7669 35.1008 -13.1241 8.05318e-05 1 
6510 1 33.9896 32.5553 -14.4175 7.35508e-05 1 
6511 1 35.5152 33.0953 -12.0571 0.000162087 1 
6512 1 36.1696 34.4079 -14.5198 3.70276e-05 1 
7325 1 41.1858 37.5961 -1.17356 5.36614 5 
7326 1 43.2696 35.6664 -0.596351 9.62308 5 
7327 1 37.719 35.4855 -3.65104 1.97514 5 
7328 1 38.34 36.7391 -6.07779 0.0272198 1 
7329 1 39.8362 37.2917 -3.63793 1.51342 5 
7330 1 40.0777 34.7258 -4.9392 0.100163 1 
7331 1 41.509 35.2218 -2.60157 2.14578 5 
7332 1 42.2503 36.5471 -5.09757 0.0274296 1 
7333 1 43.7661 37.0793 -2.78902 5.46969 5 
7334 1 44.0036 34.551 -4.06846 0.173877 1 
7335 1 45.6608 34.8199 -1.67104 5.15533 5 
7336 1 46.1941 36.328 -4.11 0.137523 1 
7337 1 47.7501 36.6363 -1.7498 4.93306 5 
7338 1 47.968 34.2403 -3.17606 0.239204 1 
7339 1 49.6056 34.7152 -0.968018 9.98492 5 
7340 1 50.0849 36.2084 -3.27542 0.545672 1 
7341 1 14.0475 36.5865 -1.10488 11.3385 5 
7342 1 14.4601 34.095 -2.04152 3.99328 5 
7343 1 16.5523 36.2313 -2.17028 0.929919 1 
7344 1 18.3074 34.3541 -1.28693 7.71366 5 
7345 1 24.4905 35.6664 -0.596351 9.62308 5 
7346 1 38.5666 34.1886 -7.34357 0.00712025 1 
7347 1 39.2208 35.4909 -9.80662 0.000735159 1 
7348 1 40.741 36.0233 -7.44236 0.00727351 1 
7349 1 40.962 33.4836 -8.74495 0.00158193 1 
7350 1 42.4753 34.0175 -6.39754 0.0084287 1 
7351 1 43.1478 35.3349 -8.84602 0.000875274 1 
7352 1 44.6718 35.8662 -6.48971 0.0106384 1 
7353 1 44.8947 33.3224 -7.80863 0.00443006 1 
7354 1 46.4129 33.8208 -5.46278 0.0314128 1 
7355 1 47.0793 35.1687 -7.88949 0.00427715 1 
7356 1 48.5931 35.6799 -5.55414 0.0512195 1 
7357 1 48.8511 33.1514 -6.82968 0.0104939 1 
7358 1 12.8423 33.6627 -4.44209 0.0846247 1 
7359 1 13.4626 35.0176 -6.89696 0.0131977 1 
7360 1 14.9738 35.5815 -4.48601 0.208492 1 
7361 1 15.2141 33.0244 -5.82125 0.026651 1 
7362 1 16.7545 33.6226 -3.49537 0.360903 1 
7363 1 17.3731 34.8945 -5.94984 0.0166576 1 
7364 1 18.9399 35.4855 -3.65104 1.97514 5 
7365 1 19.1578 32.9122 -4.89668 0.109517 1 
7366 1 20.7093 33.3937 -2.34578 3.24494 5 
7367 1 21.2986 34.7258 -4.9392 0.100163 1 
7368 1 22.73 35.2218 -2.60157 2.14578 5 
7369 1 23.027 32.692 -3.95414 0.167663 1 
7370 1 24.6255 33.1701 -1.78777 6.54197 5 
7371 1 25.2245 34.551 -4.06846 0.173877 1 
7372 1 26.8817 34.8199 -1.67104 5.15533 5 
7373 1 27.0181 32.4101 -3.05289 6.90284 5 
7374 1 28.484 32.5535 -0.725073 11.695 5 
7375 1 29.1889 34.2403 -3.17606 0.239204 1 
7376 1 30.8265 34.7152 -0.968018 9.98492 5 
7377 1 30.9822 32.2049 -2.09574 7.18235 5 
7378 1 33.2392 34.095 -2.04152 3.99328 5 
7379 1 37.0865 34.3541 -1.28693 7.71366 5 
7380 1 37.695 34.9491 -12.1622 0.000120757 1 
7381 1 37.9152 32.4029 -13.4558 9.58897e-05 1 
7382 1 39.4398 32.9448 -11.1006 0.000268932 1 
7383 1 40.0983 34.256 -13.5593 5.95255e-05 1 
7384 1 41.6242 34.7966 -11.2025 0.000193615 1 
7385 1 41.8428 32.25 -12.501 0.000203578 1 
7386 1 43.368 32.7893 -10.1514 0.000835633 1 
7387 1 44.0294 34.1018 -12.5997 0.000180944 1 
7388 1 45.5564 34.6398 -10.2441 0.000807736 1 
7389 1 45.7804 32.0939 -11.5435 0.000543613 1 
7390 1 47.3144 32.6266 -9.18906 0.00203002 1 
7391 1 47.9648 33.9443 -11.6332 0.000417961 1 
7392 1 49.4932 34.4807 -9.27047 0.00151764 1 
7393 1 12.1636 31.935 -10.5661 0.000977362 1 
7394 1 13.6944 32.4729 -8.1985 0.00309683 1 
7395 1 14.3363 33.7879 -10.6621 0.000371137 1 
7396 1 15.8576 34.3301 -8.29983 0.00165687 1 
7397 1 16.0867 31.783 -9.58734 0.000689616 1 
7398 1 17.6056 32.3355 -7.22388 0.00500631 1 
7399 1 18.2594 33.6382 -9.69836 0.000567027 1 
7400 1 19.7875 34.1886 -7.34357 0.00712025 1 
7401 1 20.0058 31.639 -8.63552 0.00163044 1 
7402 1 21.5248 32.174 -6.26723 0.0196207 1 