ITEM: TIMESTEP
0
ITEM: NUMBER OF ATOMS
6360
ITEM: BOX BOUNDS xy xz yz pp pp ss
0.0000000000000000e+00 1.3337914897900001e+02 3.4506048491999998e+01
0.0000000000000000e+00 3.6090339669000002e+01 0.0000000000000000e+00
-8.4416092943143099e+01 8.6350074297198361e+01 0.0000000000000000e+00
ITEM: ATOMS id type x y z c_csym c_cna 
26129 2 92.0109 4.09742 0.794289 11.7089 5 
20569 2 67.2559 20.833 -0.21556 8.92065 5 
24511 2 50.0029 2.78784 -0.21556 8.92065 5 
23049 2 42.5744 4.09742 0.794289 11.7089 5 
21705 2 51.2009 13.12 0.794289 11.7089 5 
21665 2 99.4394 2.78784 -0.21556 8.92065 5 
5859 1 99.3264 35.1382 -10.4485 0.00100586 1 
5861 1 99.4955 33.6132 -12.8439 0.000426674 1 
5863 1 102.321 34.0952 -12.9442 0.000420505 1 
5864 1 102.157 35.6198 -10.5483 0.0010452 1 
5865 1 70.4796 0.00944607 -10.6392 0.00131542 1 
5875 1 105.145 34.5775 -13.0385 0.000437383 1 
5877 1 107.964 35.061 -13.1308 0.000320957 1 
5896 1 110.781 35.5459 -13.2257 0.000323862 1 
5897 1 113.596 36.0336 -13.3238 0.000365297 1 
19692 2 59.8274 22.1426 0.794289 11.7089 5 
21712 2 58.6294 11.8104 -0.21556 8.92065 5 
19664 2 108.066 11.8104 -0.21556 8.92065 5 
7416 1 99.6622 34.8213 -3.60629 0.131425 1 
7417 1 100.007 31.7616 -8.28695 0.0025433 1 
7418 1 99.819 33.2736 -5.91439 0.0287328 1 
7419 1 100.994 34.4531 -8.23469 0.00365754 1 
7420 1 100.826 35.9908 -5.86824 0.0254749 1 
7421 1 102.67 33.779 -6.03047 0.0234717 1 
7422 1 102.498 35.3506 -3.67638 0.395112 1 
7423 1 105.349 35.8001 -3.74518 0.196495 1 
7425 1 98.5043 30.9258 -12.9083 0.000406382 1 
7426 1 100.334 28.722 -13.0681 0.000388324 1 
7427 1 100.173 30.2406 -10.6684 0.00103491 1 
7428 1 101.328 31.4073 -13.0077 0.000433239 1 
7429 1 101.164 32.929 -10.6152 0.0010949 1 
7430 1 102.995 30.7226 -10.7609 0.00132664 1 
7431 1 102.836 32.2423 -8.38052 0.0046783 1 
7432 1 103.991 33.4118 -10.7049 0.00121167 1 
7433 1 103.835 34.9362 -8.31986 0.00507871 1 
7434 1 105.66 32.7301 -8.44857 0.00372885 1 
7435 1 105.522 34.2532 -6.06621 0.0428157 1 
7436 1 106.659 35.4206 -8.38337 0.00325109 1 
7437 1 108.322 34.7412 -6.09524 0.019603 1 
7445 1 103.152 29.2059 -13.1636 0.000445247 1 
7447 1 104.149 31.891 -13.1023 0.000463163 1 
7448 1 105.969 29.693 -13.2583 0.000430003 1 
7449 1 105.814 31.21 -10.845 0.00137135 1 
7450 1 106.967 32.3769 -13.1945 0.000395952 1 
7451 1 106.812 33.8967 -10.7854 0.00086277 1 
7452 1 108.626 31.6999 -10.9305 0.000990608 1 
7453 1 108.474 33.2208 -8.51231 0.00213161 1 
7454 1 109.626 34.3819 -10.8706 0.000684107 1 
7455 1 109.473 35.8999 -8.45591 0.00241382 1 
7456 1 111.284 33.712 -8.59616 0.00227169 1 
7457 1 111.119 35.2301 -6.15492 0.0268462 1 
7458 1 113.962 35.7242 -6.24782 0.0246573 1 
7474 1 108.783 30.1823 -13.356 0.000383226 1 
7476 1 109.782 32.8639 -13.2899 0.000344471 1 
7477 1 111.596 30.6717 -13.4602 0.000344386 1 
7478 1 111.437 32.191 -11.0288 0.000616734 1 
7479 1 112.596 33.3526 -13.3912 0.000309709 1 
7480 1 112.44 34.8697 -10.9639 0.000770197 1 
7481 1 114.25 32.6821 -11.1343 0.000558461 1 
7482 1 114.097 34.2031 -8.69475 0.00158124 1 
7483 1 115.253 35.3613 -11.0629 0.000682132 1 
7484 1 116.907 34.6932 -8.79752 0.00190482 1 
7510 1 114.409 31.1617 -13.57 0.000314511 1 
7512 1 115.41 33.8427 -13.4971 0.000306905 1 
7513 1 117.224 31.6521 -13.6848 0.00026652 1 
7514 1 117.062 33.1739 -11.2455 0.000676152 1 
7515 1 118.224 34.3334 -13.6072 0.000319112 1 
7516 1 118.063 35.8541 -11.1668 0.000821131 1 
7517 1 119.875 33.6655 -11.3627 0.000541754 1 
7518 1 119.712 35.1876 -8.9097 0.0020811 1 
7519 1 122.521 35.6783 -9.03255 0.00193703 1 
7553 1 120.04 32.1416 -13.8031 0.000207028 1 
7555 1 121.038 34.8231 -13.7227 0.000247792 1 
7556 1 122.857 32.6295 -13.9239 0.000159875 1 
7557 1 122.689 34.1545 -11.4847 0.000478329 1 
7558 1 123.854 35.3115 -13.8427 0.000199066 1 
7559 1 125.505 34.64 -11.6127 0.000300765 1 
7601 1 125.675 33.1154 -14.0471 0.00010807 1 
7603 1 126.671 35.7988 -13.9654 0.000173787 1 
7604 1 128.495 33.6002 -14.171 7.66806e-05 1 
7605 1 128.324 35.1247 -11.7423 0.000233341 1 
7606 1 131.145 35.6096 -11.8687 0.000210575 1 
7656 1 131.316 34.0845 -14.2935 6.11818e-05 1 
7658 1 35.2656 34.568 -14.4142 4.49926e-05 1 
7659 1 0.5883 0.00225944 -11.9919 0.000132288 1 
7717 1 38.0884 35.0511 -14.5333 3.55496e-05 1 
7718 1 40.9115 35.534 -14.6513 3.26067e-05 1 
7785 1 43.7351 36.0167 -14.7686 5.33084e-05 1 
19657 2 100.637 13.12 0.794289 11.7089 5 
9035 1 98.6389 32.1121 -3.51431 0.573482 1 
9036 1 98.5952 33.6834 -1.22578 8.06914 5 
9037 1 100.298 31.5109 -1.37211 7.66542 5 
9038 1 101.407 34.0604 -1.54903 6.80371 5 
9039 1 99.0273 29.0756 -8.32295 0.00611286 1 
9040 1 98.8515 30.6026 -5.949 0.0132031 1 
9041 1 100.707 28.3873 -6.03775 0.0454823 1 
9042 1 100.509 29.923 -3.69887 0.113059 1 
9043 1 101.682 31.0601 -6.05904 0.0278328 1 
9044 1 101.516 32.5673 -3.7771 0.22866 1 
9045 1 103.351 30.3628 -3.7695 0.125791 1 
9046 1 103.176 31.9512 -1.47554 5.0357 5 
9047 1 104.339 33.0589 -3.83114 0.235955 1 
9048 1 104.134 34.5533 -1.61119 6.92592 5 
9049 1 106.03 32.5205 -1.40769 4.97736 5 
9050 1 106.983 35.1882 -1.30315 4.72687 5 
9051 1 99.3378 26.0384 -13.1308 0.000320957 1 
9052 1 99.1809 27.5578 -10.724 0.000748496 1 
9053 1 101 25.3594 -10.8706 0.000684107 1 
9054 1 100.846 26.8773 -8.45591 0.00241382 1 
9055 1 101.999 28.0391 -10.8122 0.00113218 1 
9056 1 101.843 29.5514 -8.41472 0.00516846 1 
9057 1 103.662 27.3577 -8.53675 0.00504711 1 
9058 1 103.507 28.8613 -6.13122 0.0368822 1 
9059 1 104.66 30.039 -8.49528 0.00526884 1 
9060 1 104.505 31.5492 -6.12556 0.0245616 1 
9061 1 106.307 29.3648 -6.18677 0.041697 1 
9062 1 106.18 30.9197 -3.81144 0.104612 1 
9063 1 107.322 32.0664 -6.15407 0.0140233 1 
9064 1 107.187 33.6059 -3.68312 0.302195 1 
9065 1 108.991 31.4649 -3.82931 0.356851 1 
9066 1 108.948 33.0288 -0.933606 11.0027 5 
9067 1 109.971 34.1004 -3.71569 0.345356 1 
9068 1 109.813 35.7266 -1.30741 7.00602 5 
9069 1 111.686 33.6046 -1.57728 6.52279 5 
9070 1 78.1576 0.242757 -0.514229 12.7597 5 
9076 1 101.155 23.8414 -13.2899 0.000344471 1 
9078 1 102.154 26.5233 -13.2257 0.000323862 1 
9079 1 103.969 24.33 -13.3912 0.000309709 1 
9080 1 103.814 25.8471 -10.9639 0.000770197 1 
9081 1 104.97 27.011 -13.3238 0.000365297 1 
9082 1 104.814 28.5263 -10.9027 0.00110585 1 
9083 1 106.626 26.3387 -11.0629 0.000682132 1 
9084 1 106.473 27.8571 -8.62937 0.00222917 1 
9085 1 107.627 29.019 -10.9944 0.000880109 1 
9086 1 107.471 30.5347 -8.56301 0.00536137 1 
9087 1 109.28 28.3537 -8.72118 0.00259358 1 
9088 1 109.13 29.8925 -6.27826 0.0204493 1 
9089 1 110.28 31.0342 -8.65886 0.00185791 1 
9090 1 110.135 32.5674 -6.21718 0.0162245 1 
9091 1 111.931 30.3689 -6.3992 0.0065861 1 
9092 1 111.812 31.9114 -3.97453 0.142139 1 
9093 1 112.942 33.0607 -6.32654 0.00665979 1 
9094 1 112.79 34.6031 -3.91928 1.15712 5 
9095 1 114.593 32.3854 -4.0448 0.137291 1 
9096 1 114.389 34.0656 -1.64102 6.62365 5 
9097 1 115.62 35.0688 -3.90871 0.347435 1 
9098 1 117.252 34.4497 -1.1365 11.8309 5 
9112 1 106.783 24.8201 -13.4971 0.000306905 1 
9114 1 107.784 27.501 -13.4251 0.000371733 1 
9115 1 109.597 25.3108 -13.6072 0.000319112 1 
9116 1 109.437 26.8315 -11.1668 0.000821131 1 
9117 1 110.597 27.9913 -13.5317 0.000366887 1 
9118 1 110.437 29.5109 -11.0949 0.000769551 1 
9119 1 112.248 27.322 -11.2806 0.000606564 1 
9120 1 112.084 28.8411 -8.83234 0.00234572 1 
9121 1 113.246 30.0016 -11.2059 0.000719444 1 
9122 1 113.089 31.526 -8.76735 0.000988187 1 
9123 1 114.893 29.3356 -8.95935 0.00183508 1 
9124 1 114.73 30.863 -6.51114 0.0141293 1 
9125 1 115.899 32.0179 -8.87648 0.00187988 1 
9126 1 115.749 33.5422 -6.4147 0.0086964 1 
9127 1 117.547 31.3708 -6.62823 0.0265845 1 
9128 1 117.403 32.9081 -4.11211 0.352812 1 
9129 1 118.564 34.0267 -6.52394 0.0156914 1 
9130 1 118.383 35.5293 -4.02877 0.354327 1 
9131 1 120.227 33.3487 -4.2576 0.207617 1 
9132 1 120.037 34.919 -1.86498 5.04855 5 
9133 1 121.203 36.051 -4.20137 0.0258724 1 
9134 1 122.839 35.3712 -1.97494 5.36756 5 
9156 1 112.412 25.8005 -13.7227 0.000247792 1 
9158 1 113.41 28.4811 -13.6449 0.000297933 1 
9159 1 115.227 26.2889 -13.8427 0.000199066 1 
9160 1 115.06 27.8117 -11.4026 0.000523163 1 
9161 1 116.225 28.9705 -13.7628 0.000239003 1 
9162 1 116.06 30.4935 -11.3235 0.000555533 1 
9163 1 117.874 28.3009 -11.5286 0.000634526 1 
9164 1 117.706 29.8299 -9.08638 0.00283058 1 
9165 1 118.875 30.9838 -11.4464 0.000503817 1 
9166 1 118.711 32.5102 -9.00024 0.00286355 1 
9167 1 120.526 30.3153 -9.22137 0.000462612 1 
9168 1 120.364 31.8466 -6.7782 0.0117358 1 
9169 1 121.525 32.9998 -9.12797 0.001056 1 
9170 1 121.358 34.5227 -6.66055 0.00714795 1 
9171 1 123.176 32.3282 -6.9034 0.00797358 1 
9172 1 122.983 33.8227 -4.39179 0.194464 1 
9173 1 124.155 34.9983 -6.7916 0.0124947 1 
9174 1 125.792 34.3147 -4.59578 0.0175735 1 
9175 1 125.653 35.8187 -2.1636 1.14999 5 
9205 1 118.045 26.7763 -13.9654 0.000173787 1 
9207 1 119.042 29.4591 -13.8841 0.000202408 1 
9208 1 120.864 27.2622 -14.0894 9.746e-05 1 
9209 1 120.694 28.7877 -11.6581 0.000234517 1 
9210 1 121.86 29.9464 -14.0068 0.000123608 1 
9211 1 121.692 31.4722 -11.5714 0.000244605 1 
9212 1 123.514 29.2731 -11.7836 0.000200512 1 
9213 1 123.344 30.8004 -9.34833 0.000310093 1 
9214 1 124.51 31.9575 -11.6967 0.000219099 1 
9215 1 124.339 33.4836 -9.2558 0.0013442 1 
9216 1 126.163 31.2814 -9.47707 0.000409523 1 
9217 1 125.987 32.8028 -7.03537 0.00223786 1 
9218 1 127.156 33.9634 -9.39252 0.000589452 1 
9219 1 126.976 35.4847 -6.96021 0.00300375 1 
9220 1 128.81 33.2771 -7.1866 0.00247762 1 
9221 1 128.622 34.792 -4.7831 0.0274267 1 
9222 1 129.801 35.9722 -7.11289 0.00409118 1 
9223 1 131.459 35.2867 -4.93981 0.0217804 1 
9261 1 123.685 27.7472 -14.2119 7.79816e-05 1 
9263 1 124.68 30.4319 -14.1293 9.84103e-05 1 
9264 1 27.6332 28.2309 -14.3333 5.88839e-05 1 
9265 1 126.335 29.756 -11.9079 0.000156239 1 
9266 1 127.501 30.9157 -14.2521 6.61323e-05 1 
9267 1 127.329 32.4401 -11.8243 0.000149717 1 
9268 1 30.284 30.2372 -12.0318 7.66208e-05 1 
9269 1 128.985 31.7592 -9.60816 0.000286384 1 
9270 1 130.151 32.9225 -11.9509 0.00010679 1 
9271 1 129.977 34.446 -9.52928 0.000652345 1 
9272 1 32.9351 32.2395 -9.73413 0.000279084 1 
9273 1 32.7618 33.7582 -7.32452 0.00402344 1 
9274 1 33.9279 34.9294 -9.65554 0.000641355 1 
9275 1 35.5815 34.2372 -7.44311 0.00320294 1 
9276 1 35.4107 35.7677 -5.05775 0.0223155 1 
9324 1 30.4553 28.7138 -14.4538 3.91566e-05 1 
9326 1 31.4491 31.3991 -14.374 4.40864e-05 1 
9327 1 33.2779 29.1969 -14.5732 3.39793e-05 1 
9328 1 33.1066 30.7195 -12.1538 3.98538e-05 1 
9329 1 34.2716 31.8824 -14.4943 3.69539e-05 1 
9330 1 34.1002 33.4055 -12.0739 8.57396e-05 1 
9331 1 35.9301 31.2024 -12.2743 4.66935e-05 1 
9332 1 35.7581 32.7223 -9.85642 0.000245461 1 
9333 1 36.9236 33.8884 -12.1939 5.81679e-05 1 
9334 1 36.7511 35.4106 -9.77488 0.000351316 1 
9335 1 38.5835 33.2055 -9.97546 0.000159639 1 
9336 1 38.4118 34.7223 -7.56278 0.00133417 1 
9337 1 39.5756 35.892 -9.89478 0.000197354 1 
9338 1 41.2344 35.2108 -7.67159 0.00106951 1 
9394 1 36.1015 29.68 -14.6916 4.98348e-05 1 
9396 1 37.0949 32.3656 -14.6128 3.73021e-05 1 
9397 1 38.9262 30.163 -14.8078 7.3196e-05 1 
9398 1 38.7552 31.6857 -12.3925 6.13452e-05 1 
9399 1 39.919 32.8486 -14.7295 4.26326e-05 1 
9400 1 39.7477 34.371 -12.3122 4.23674e-05 1 
9401 1 41.5808 32.169 -12.5076 8.54085e-05 1 
9402 1 41.4085 33.6901 -10.0902 0.00014805 1 
9403 1 42.5714 34.8539 -12.4299 5.27469e-05 1 
9404 1 44.2313 34.1726 -10.2109 0.000384894 1 
9405 1 44.054 35.6929 -7.79584 0.00120853 1 
9467 1 41.7514 30.6457 -14.921 9.588e-05 1 
9469 1 42.7432 33.3312 -14.8447 6.00499e-05 1 
9471 1 44.4061 32.6507 -12.6225 0.000171521 1 
9472 1 45.5678 33.8132 -14.9588 0.000107955 1 
9473 1 45.3961 35.3363 -12.5487 0.00016728 1 
9474 1 47.2323 33.1317 -12.7361 0.000320338 1 
9475 1 47.0593 34.6548 -10.3348 0.000671394 1 
9476 1 48.2232 35.8191 -12.6648 0.000315765 1 
9477 1 49.8899 35.1382 -10.4485 0.00100586 1 
9545 1 50.0589 33.6132 -12.8439 0.000426674 1 
9547 1 52.8848 34.0952 -12.9442 0.000420505 1 
9548 1 52.7207 35.6198 -10.5483 0.0010452 1 
9549 1 21.043 0.00944607 -10.6392 0.00131542 1 
9619 1 55.7083 34.5775 -13.0385 0.000437383 1 
9621 1 58.5277 35.061 -13.1308 0.000320957 1 
9692 1 61.3444 35.5459 -13.2257 0.000323862 1 
9693 1 64.1597 36.0336 -13.3238 0.000365297 1 
18995 2 68.4539 31.1652 0.794289 11.7089 5 
19002 2 75.8824 29.8556 -0.21556 8.92065 5 
10655 1 99.2813 28.783 -1.36851 3.49038 5 
10656 1 98.695 23.0438 -6.15407 0.0140233 1 
10657 1 98.5601 24.5833 -3.68312 0.302195 1 
10658 1 99.695 25.7186 -6.09524 0.019603 1 
10659 1 99.5275 27.2452 -3.72373 0.107195 1 
10660 1 101.345 25.0778 -3.71569 0.345356 1 
10661 1 101.186 26.704 -1.30741 7.00602 5 
10662 1 102.375 27.7256 -3.65451 0.891672 5 
10663 1 102.09 29.3262 -1.2913 8.3244 5 
10664 1 104.037 27.3105 -0.514229 12.7597 5 
10665 1 105.066 29.8409 -1.40521 8.28035 5 
10666 1 99.0005 19.9965 -10.9944 0.000880109 1 
10667 1 98.844 21.5121 -8.56301 0.00536137 1 
10668 1 99.9991 22.6773 -10.9305 0.000990608 1 
10669 1 99.8473 24.1982 -8.51231 0.00213161 1 
10670 1 101.653 22.0116 -8.65886 0.00185791 1 
10671 1 101.509 23.5448 -6.21718 0.0162245 1 
10672 1 102.657 24.6894 -8.59616 0.00227169 1 
10673 1 102.493 26.2075 -6.15492 0.0268462 1 
10674 1 104.316 24.0381 -6.32654 0.00665979 1 
10675 1 104.164 25.5805 -3.91928 1.15712 5 
10676 1 105.335 26.7016 -6.24782 0.0246573 1 
10677 1 105.142 28.205 -3.74549 0.928846 5 
10678 1 106.993 26.0462 -3.90871 0.347435 1 
10679 1 106.799 27.6647 -1.52362 7.27619 5 
10680 1 107.98 28.716 -3.97236 0.148809 1 
10681 1 107.889 30.2486 -1.59604 2.49471 5 
10682 1 109.603 28.1085 -1.65263 5.53451 5 
10683 1 110.682 30.755 -1.70166 6.32229 5 
10685 1 99.1572 18.4785 -13.4251 0.000371733 1 
10687 1 100.156 21.1597 -13.356 0.000383226 1 
10688 1 101.97 18.9687 -13.5317 0.000366887 1 
10689 1 101.81 20.4883 -11.0949 0.000769551 1 
10690 1 102.969 21.6492 -13.4602 0.000344386 1 
10691 1 102.811 23.1684 -11.0288 0.000616734 1 
10692 1 104.62 20.9791 -11.2059 0.000719444 1 
10693 1 104.462 22.5034 -8.76735 0.000988187 1 
10694 1 105.623 23.6595 -11.1343 0.000558461 1 
10695 1 105.471 25.1805 -8.69475 0.00158124 1 
10696 1 107.273 22.9953 -8.87648 0.00187988 1 
10697 1 107.122 24.5196 -6.4147 0.0086964 1 
10698 1 108.28 25.6706 -8.79752 0.00190482 1 
10699 1 108.127 27.1867 -6.35726 0.0180903 1 
10700 1 109.937 25.0042 -6.52394 0.0156914 1 
10701 1 109.756 26.5067 -4.02877 0.354327 1 
10702 1 110.918 27.6774 -6.44304 0.0175693 1 
10703 1 110.788 29.2011 -4.02431 0.0492702 1 
10704 1 112.577 27.0284 -4.20137 0.0258724 1 
10705 1 112.441 28.5252 -1.63944 4.09689 5 
10706 1 113.559 29.7199 -4.08981 0.143518 1 
10707 1 113.512 31.2836 -1.46505 9.26166 5 
10708 1 115.235 29.0369 -1.95011 2.61945 5 
10709 1 116.293 31.6838 -1.86519 6.62199 5 
10719 1 104.784 19.4585 -13.6449 0.000297933 1 
10721 1 105.783 22.1391 -13.57 0.000314511 1 
10722 1 107.598 19.948 -13.7628 0.000239003 1 
10723 1 107.433 21.4709 -11.3235 0.000555533 1 
10724 1 108.598 22.6295 -13.6848 0.00026652 1 
10725 1 108.435 24.1513 -11.2455 0.000676152 1 
10726 1 110.248 21.9612 -11.4464 0.000503817 1 
10727 1 110.084 23.4876 -9.00024 0.00286355 1 
10728 1 111.248 24.6429 -11.3627 0.000541754 1 
10729 1 111.085 26.165 -8.9097 0.0020811 1 
10730 1 112.899 23.9772 -9.12797 0.001056 1 
10731 1 112.732 25.5002 -6.66055 0.00714795 1 
10732 1 113.895 26.6557 -9.03255 0.00193703 1 
10733 1 113.728 28.1852 -6.57452 0.00825311 1 
10734 1 115.529 25.9758 -6.7916 0.0124947 1 
10735 1 115.366 27.504 -4.35585 0.00628772 1 
10736 1 116.537 28.663 -6.73742 0.00623231 1 
10737 1 116.381 30.191 -4.32882 0.0777523 1 
10738 1 118.179 27.9873 -4.53133 0.0248881 1 
10739 1 118.08 29.5588 -2.16469 0.512681 1 
10740 1 119.222 30.6882 -4.4548 0.0530593 1 
10741 1 119.054 32.1496 -1.94829 6.49271 5 
10742 1 120.921 30.015 -2.20976 6.31894 5 
10743 1 121.843 32.6793 -1.6218 10.4761 5 
10761 1 110.415 20.4365 -13.8841 0.000202408 1 
10763 1 111.413 23.119 -13.8031 0.000207028 1 
10764 1 113.234 20.9238 -14.0068 0.000123608 1 
10765 1 113.065 22.4496 -11.5714 0.000244605 1 
10766 1 114.231 23.607 -13.9239 0.000159875 1 
10767 1 114.063 25.1319 -11.4847 0.000478329 1 
10768 1 115.883 22.9349 -11.6967 0.000219099 1 
10769 1 115.713 24.461 -9.2558 0.0013442 1 
10770 1 116.879 25.6174 -11.6127 0.000300765 1 
10771 1 116.705 27.1391 -9.1704 0.00174431 1 
10772 1 118.529 24.9408 -9.39252 0.000589452 1 
10773 1 118.349 26.4621 -6.96021 0.00300375 1 
10774 1 119.523 27.6273 -9.31197 0.000931868 1 
10775 1 119.353 29.1554 -6.88212 0.0047095 1 
10776 1 121.175 26.9496 -7.11289 0.00409118 1 
10777 1 121.009 28.4871 -4.70056 0.0291001 1 
10778 1 122.179 29.652 -7.00108 0.00674701 1 
10779 1 122.02 31.1843 -4.53463 0.223408 1 
10780 1 123.846 28.9766 -4.80978 0.0274757 1 
10781 1 123.635 30.4774 -2.28924 6.73405 5 
10782 1 124.812 31.6493 -4.66688 0.0151967 1 
10783 1 124.626 33.1395 -2.16388 5.46326 5 
10784 1 126.459 31.0167 -2.46135 0.184957 1 
10785 1 127.396 33.6788 -2.39666 0.383118 1 
10786 1 129.019 32.8644 -0.458391 7.88872 5 
10787 1 130.187 35.6838 -0.378069 6.27806 5 
10815 1 116.054 21.4093 -14.1293 9.84103e-05 1 
10817 1 117.049 24.0928 -14.0471 0.00010807 1 
10818 1 118.874 21.8931 -14.2521 6.61323e-05 1 
10819 1 118.703 23.4175 -11.8243 0.000149717 1 
10820 1 119.869 24.5776 -14.171 7.66806e-05 1 
10821 1 119.697 26.1021 -11.7423 0.000233341 1 
10822 1 121.524 23.9 -11.9509 0.00010679 1 
10823 1 121.351 25.4234 -9.52928 0.000652345 1 
10824 1 122.518 26.587 -11.8687 0.000210575 1 
10825 1 122.346 28.1156 -9.4413 0.00117028 1 
10826 1 25.3014 25.9068 -9.65554 0.000641355 1 
10827 1 124.001 27.4378 -7.2416 0.00476155 1 
10828 1 125.169 28.597 -9.56782 0.000665269 1 
10829 1 124.999 30.1269 -7.13196 0.00243243 1 
10830 1 27.9525 27.9163 -7.35826 0.00348482 1 
10831 1 126.652 29.4536 -4.91534 0.0211038 1 
10832 1 127.817 30.5985 -7.26356 0.00150715 1 
10833 1 127.642 32.1198 -4.82755 0.0203463 1 
10834 1 30.5938 29.8938 -5.05767 0.0185064 1 
10835 1 30.4388 31.3676 -2.65902 0.676225 1 
10836 1 31.6058 32.5701 -4.98611 0.0480848 1 
10837 1 130.299 34.0737 -2.65936 0.213185 1 
10838 1 33.2466 31.8474 -2.61397 0.638509 1 
10839 1 33.0884 33.4263 -0.35048 7.98422 5 
10840 1 34.2352 34.5646 -2.78733 0.175043 1 
10841 1 35.9324 33.832 -0.688381 6.91478 5 
10877 1 22.8226 22.3765 -14.374 4.40864e-05 1 
10879 1 122.69 25.0619 -14.2935 6.11818e-05 1 
10880 1 25.6451 22.8598 -14.4943 3.69539e-05 1 
10881 1 25.4736 24.383 -12.0739 8.57396e-05 1 
10882 1 26.6391 25.5455 -14.4142 4.49926e-05 1 
10883 1 26.4678 27.07 -11.9919 0.000132288 1 
10884 1 28.2971 24.8658 -12.1939 5.81679e-05 1 
10885 1 28.1246 26.388 -9.77488 0.000351316 1 
10886 1 29.2904 27.5518 -12.1129 7.24111e-05 1 
10887 1 29.1186 29.0755 -9.69138 0.000303182 1 
10888 1 30.949 26.8694 -9.89478 0.000197354 1 
10889 1 30.7785 28.3893 -7.47794 0.00220896 1 
10890 1 31.9419 29.555 -9.8136 0.000145745 1 
10891 1 31.7696 31.07 -7.39364 0.00165665 1 
10892 1 33.5993 28.8712 -7.59036 0.00067349 1 
10893 1 33.4304 30.3859 -5.16016 0.0214685 1 
10894 1 34.596 31.5497 -7.51353 0.00250895 1 
10895 1 34.406 33.0394 -5.10015 0.0531713 1 
10896 1 36.2702 30.8467 -5.28605 0.027475 1 
10897 1 36.0873 32.3262 -2.9332 0.191418 1 
10898 1 37.2394 33.5511 -5.24092 0.0139027 1 
10899 1 37.0574 35.1013 -2.85434 0.308596 1 
10900 1 38.9127 32.8201 -3.08178 0.202266 1 
10901 1 38.6786 34.2924 -0.790442 6.92953 5 
10902 1 39.9015 35.557 -2.96543 0.0976803 1 
10903 1 41.4684 34.8889 -0.633649 7.91292 5 
10947 1 28.4684 23.343 -14.6128 3.73021e-05 1 
10949 1 29.4618 26.0285 -14.5333 3.55496e-05 1 
10950 1 31.2925 23.826 -14.7295 4.26326e-05 1 
10951 1 31.1212 25.3484 -12.3122 4.23674e-05 1 
10952 1 32.285 26.5114 -14.6513 3.26067e-05 1 
10953 1 32.1134 28.034 -12.2331 3.83495e-05 1 
10954 1 33.9449 25.8313 -12.4299 5.27469e-05 1 
10955 1 33.7717 27.3526 -10.0127 0.000117469 1 
10956 1 34.9367 28.5168 -12.3529 6.36333e-05 1 
10957 1 34.7643 30.037 -9.93483 0.000153642 1 
10958 1 36.5956 27.8355 -10.137 0.000364011 1 
10959 1 36.4216 29.353 -7.72002 0.00230868 1 
10960 1 37.5899 30.5205 -10.0572 0.000196812 1 
10961 1 37.4183 32.0344 -7.63995 0.00192401 1 
10962 1 39.2553 29.8392 -7.84624 0.00163735 1 
10963 1 39.086 31.3355 -5.42739 0.0286134 1 
10964 1 40.2474 32.5224 -7.75356 0.00184142 1 
10965 1 40.0835 34.0339 -5.34065 0.019986 1 
10966 1 41.9031 31.8427 -5.50402 0.0233446 1 
10967 1 41.7418 33.3528 -3.03286 0.168531 1 
10968 1 42.8846 34.5223 -5.44894 0.012749 1 
10969 1 42.7268 36.0293 -3.02269 0.0866225 1 
10970 1 44.509 33.8583 -3.23612 0.250283 1 
10971 1 44.5178 35.3431 -0.736712 9.01873 5 
10972 1 47.2839 35.8749 -1.18972 6.11935 5 
11022 1 34.1167 24.3086 -14.8447 6.00499e-05 1 
11024 1 35.1086 26.9942 -14.7686 5.33084e-05 1 
11025 1 36.9413 24.7906 -14.9588 0.000107955 1 
11026 1 36.7696 26.3137 -12.5487 0.00016728 1 
11027 1 37.9333 27.4769 -14.8846 0.00010126 1 
11028 1 37.7619 29 -12.4724 0.000142972 1 
11029 1 39.5967 26.7965 -12.6648 0.000315765 1 
11030 1 39.4246 28.3204 -10.2589 0.000630547 1 
11031 1 40.5891 29.4836 -12.5875 0.000204941 1 
11032 1 40.4182 31.006 -10.1737 0.000226767 1 
11033 1 42.2554 28.8052 -10.3695 0.000835199 1 
11034 1 42.0853 30.3311 -7.95296 0.00268398 1 
11035 1 43.2447 31.4894 -10.2865 0.000414174 1 
11036 1 43.0689 33.0069 -7.86463 0.00207229 1 
11037 1 44.9117 30.8092 -8.0685 0.00173042 1 
11038 1 44.7423 32.3264 -5.64916 0.013014 1 
11039 1 45.8931 33.4899 -8.00282 0.00244886 1 
11040 1 45.7056 35.0072 -5.6003 0.0140803 1 
11041 1 47.565 32.7991 -5.81241 0.0294577 1 
11042 1 47.3936 34.3086 -3.48183 0.165387 1 
11043 1 48.5501 35.5094 -5.7472 0.0183567 1 
11044 1 50.2256 34.8213 -3.60629 0.131425 1 
11097 1 40.7589 27.9595 -14.9969 0.000142567 1 
11099 1 42.4247 27.279 -12.7731 0.000373047 1 
11101 1 43.4163 29.9657 -12.6975 0.000263394 1 
11102 1 45.2515 27.7599 -12.875 0.00038949 1 
11103 1 45.085 29.2847 -10.4743 0.000915511 1 
11104 1 46.2429 30.4456 -12.8046 0.000360036 1 
11105 1 46.0718 31.9684 -10.403 0.000679558 1 
11106 1 47.9141 29.7619 -10.5726 0.00137078 1 
11107 1 47.7422 31.2828 -8.18414 0.00286165 1 
11108 1 48.9 32.4483 -10.5136 0.00088564 1 
11109 1 48.7269 33.9739 -8.12754 0.00285236 1 
11110 1 50.5705 31.7616 -8.28695 0.0025433 1 
11111 1 50.3824 33.2736 -5.91439 0.0287328 1 
11112 1 51.5578 34.4531 -8.23469 0.00365754 1 
11113 1 51.389 35.9908 -5.86824 0.0254749 1 
11114 1 53.2334 33.779 -6.03047 0.0234717 1 
11115 1 53.061 35.3506 -3.67638 0.395112 1 
11116 1 55.9124 35.8001 -3.74518 0.196495 1 
11174 1 48.0759 28.2406 -12.9725 0.00039417 1 
11176 1 49.0678 30.9258 -12.9083 0.000406382 1 
11177 1 50.8972 28.722 -13.0681 0.000388324 1 
11178 1 50.7368 30.2406 -10.6684 0.00103491 1 
11179 1 51.8911 31.4073 -13.0077 0.000433239 1 
11180 1 51.7277 32.929 -10.6152 0.0010949 1 
11181 1 53.5585 30.7226 -10.7609 0.00132664 1 
11182 1 53.3993 32.2423 -8.38052 0.0046783 1 
11183 1 54.5542 33.4118 -10.7049 0.00121167 1 
11184 1 54.398 34.9362 -8.31986 0.00507871 1 
11185 1 56.2237 32.7301 -8.44857 0.00372885 1 
11186 1 56.0851 34.2532 -6.06621 0.0428157 1 
11187 1 57.2224 35.4206 -8.38337 0.00325109 1 
11188 1 58.885 34.7412 -6.09524 0.019603 1 
11247 1 53.7158 29.2059 -13.1636 0.000445247 1 
11249 1 54.7126 31.891 -13.1023 0.000463163 1 
11250 1 56.5323 29.693 -13.2583 0.000430003 1 
11251 1 56.377 31.21 -10.845 0.00137135 1 
11252 1 57.5304 32.3769 -13.1945 0.000395952 1 
11253 1 57.3751 33.8967 -10.7854 0.00086277 1 
11254 1 59.189 31.6999 -10.9305 0.000990608 1 
11255 1 59.0373 33.2208 -8.51231 0.00213161 1 
11256 1 60.1897 34.3819 -10.8706 0.000684107 1 
11257 1 60.0361 35.8999 -8.45591 0.00241382 1 
11258 1 61.8474 33.712 -8.59616 0.00227169 1 
11259 1 61.6825 35.2301 -6.15492 0.0268462 1 
11260 1 64.5251 35.7242 -6.24782 0.0246573 1 
11322 1 59.3464 30.1823 -13.356 0.000383226 1 
11324 1 60.3452 32.8639 -13.2899 0.000344471 1 
11325 1 62.1593 30.6717 -13.4602 0.000344386 1 
11326 1 62.0007 32.191 -11.0288 0.000616734 1 
11327 1 63.1594 33.3526 -13.3912 0.000309709 1 
11328 1 63.0035 34.8697 -10.9639 0.000770197 1 
11329 1 64.8132 32.6821 -11.1343 0.000558461 1 
11330 1 64.6609 34.2031 -8.69475 0.00158124 1 
11331 1 65.8164 35.3613 -11.0629 0.000682132 1 
11332 1 67.4702 34.6932 -8.79752 0.00190482 1 
11395 1 64.9728 31.1617 -13.57 0.000314511 1 
11397 1 65.9733 33.8427 -13.4971 0.000306905 1 
11398 1 67.7875 31.6521 -13.6848 0.00026652 1 
11399 1 67.6251 33.1739 -11.2455 0.000676152 1 
11400 1 68.7872 34.3334 -13.6072 0.000319112 1 
11401 1 68.6267 35.8541 -11.1668 0.000821131 1 
11402 1 70.4381 33.6655 -11.3627 0.000541754 1 
11403 1 70.2754 35.1876 -8.9097 0.0020811 1 
11404 1 73.0848 35.6783 -9.03255 0.00193703 1 
11469 1 70.6034 32.1416 -13.8031 0.000207028 1 
11471 1 71.6017 34.8231 -13.7227 0.000247792 1 
11472 1 73.4206 32.6295 -13.9239 0.000159875 1 
11473 1 73.2527 34.1545 -11.4847 0.000478329 1 
11474 1 74.4174 35.3115 -13.8427 0.000199066 1 
11475 1 76.0686 34.64 -11.6127 0.000300765 1 
18955 2 116.692 20.833 -0.21556 8.92065 5 
11542 1 76.2389 33.1154 -14.0471 0.00010807 1 
11544 1 77.2347 35.7988 -13.9654 0.000173787 1 
11545 1 79.0587 33.6002 -14.171 7.66806e-05 1 
11546 1 78.887 35.1247 -11.7423 0.000233341 1 
11547 1 81.7085 35.6096 -11.8687 0.000210575 1 
11616 1 81.8799 34.0845 -14.2935 6.11818e-05 1 
11618 1 84.7021 34.568 -14.4142 4.49926e-05 1 
11619 1 50.0249 0.00225944 -11.9919 0.000132288 1 
11690 1 87.5249 35.0511 -14.5333 3.55496e-05 1 
11691 1 90.3481 35.534 -14.6513 3.26067e-05 1 
11763 1 93.1717 36.0167 -14.7686 5.33084e-05 1 
12210 1 99.3533 19.6935 -3.97236 0.148809 1 
12211 1 99.2624 21.226 -1.59604 2.49471 5 
12212 1 100.364 22.4424 -3.82931 0.356851 1 
12213 1 100.321 24.0063 -0.933606 11.0027 5 
12214 1 102.055 21.7324 -1.70166 6.32229 5 
12215 1 103.06 24.582 -1.57728 6.52279 5 
12216 1 99.6537 16.648 -8.79752 0.00190482 1 
12217 1 99.5007 18.1642 -6.35726 0.0180903 1 
12218 1 100.654 19.3311 -8.72118 0.00259358 1 
12219 1 100.503 20.8699 -6.27826 0.0204493 1 
12220 1 102.291 18.6548 -6.44304 0.0175693 1 
12221 1 102.161 20.1785 -4.02431 0.0492702 1 
12222 1 103.304 21.3463 -6.3992 0.0065861 1 
12223 1 103.185 22.8888 -3.97453 0.142139 1 
12224 1 104.933 20.6973 -4.08981 0.143518 1 
12225 1 104.886 22.261 -1.46505 9.26166 5 
12226 1 105.967 23.3628 -4.0448 0.137291 1 
12227 1 105.762 25.043 -1.64102 6.62365 5 
12228 1 107.666 22.6612 -1.86519 6.62199 5 
12229 1 108.626 25.4271 -1.1365 11.8309 5 
12230 1 99.971 13.6069 -13.6848 0.00026652 1 
12231 1 99.8086 15.1288 -11.2455 0.000676152 1 
12232 1 100.971 16.2883 -13.6072 0.000319112 1 
12233 1 100.81 17.809 -11.1668 0.000821131 1 
12234 1 102.622 15.6204 -11.3627 0.000541754 1 
12235 1 102.459 17.1424 -8.9097 0.0020811 1 
12236 1 103.621 18.2994 -11.2806 0.000606564 1 
12237 1 103.457 19.8185 -8.83234 0.00234572 1 
12238 1 105.268 17.6332 -9.03255 0.00193703 1 
12239 1 105.101 19.1626 -6.57452 0.00825311 1 
12240 1 106.266 20.313 -8.95935 0.00183508 1 
12241 1 106.103 21.8404 -6.51114 0.0141293 1 
12242 1 107.911 19.6404 -6.73742 0.00623231 1 
12243 1 107.755 21.1684 -4.32882 0.0777523 1 
12244 1 108.921 22.3483 -6.62823 0.0265845 1 
12245 1 108.777 23.8855 -4.11211 0.352812 1 
12246 1 110.596 21.6656 -4.4548 0.0530593 1 
12247 1 110.427 23.1271 -1.94829 6.49271 5 
12248 1 111.601 24.3262 -4.2576 0.207617 1 
12249 1 111.411 25.8964 -1.86498 5.04855 5 
12250 1 113.217 23.6567 -1.6218 10.4761 5 
12251 1 114.212 26.3486 -1.97494 5.36756 5 
12259 1 102.787 14.0965 -13.8031 0.000207028 1 
12261 1 103.785 16.7779 -13.7227 0.000247792 1 
12262 1 105.604 14.5844 -13.9239 0.000159875 1 
12263 1 105.436 16.1093 -11.4847 0.000478329 1 
12264 1 106.601 17.2663 -13.8427 0.000199066 1 
12265 1 106.433 18.7891 -11.4026 0.000523163 1 
12266 1 108.252 16.5948 -11.6127 0.000300765 1 
12267 1 108.078 18.1165 -9.1704 0.00174431 1 
12268 1 109.248 19.2783 -11.5286 0.000634526 1 
12269 1 109.08 20.8073 -9.08638 0.00283058 1 
12270 1 110.897 18.6047 -9.31197 0.000931868 1 
12271 1 110.727 20.1329 -6.88212 0.0047095 1 
12272 1 111.899 21.2927 -9.22137 0.000462612 1 
12273 1 111.738 22.824 -6.7782 0.0117358 1 
12274 1 113.552 20.6294 -7.00108 0.00674701 1 
12275 1 113.393 22.1617 -4.53463 0.223408 1 
12276 1 114.549 23.3057 -6.9034 0.00797358 1 
12277 1 114.356 24.8002 -4.39179 0.194464 1 
12278 1 116.185 22.6267 -4.66688 0.0151967 1 
12279 1 115.999 24.1169 -2.16388 5.46326 5 
12280 1 117.165 25.2921 -4.59578 0.0175735 1 
12281 1 117.027 26.7961 -2.1636 1.14999 5 
12282 1 118.769 24.6562 -2.39666 0.383118 1 
12283 1 119.849 27.3051 -2.4096 0.162849 1 
12284 1 121.561 26.6612 -0.378069 6.27806 5 
12300 1 108.422 15.0703 -14.0471 0.00010807 1 
12302 1 109.418 17.7537 -13.9654 0.000173787 1 
12303 1 111.242 15.555 -14.171 7.66806e-05 1 
12304 1 111.071 17.0795 -11.7423 0.000233341 1 
12305 1 112.238 18.2396 -14.0894 9.746e-05 1 
12306 1 112.067 19.7651 -11.6581 0.000234517 1 
12307 1 113.892 17.5644 -11.8687 0.000210575 1 
12308 1 113.72 19.093 -9.4413 0.00117028 1 
12309 1 114.888 20.2506 -11.7836 0.000200512 1 
12310 1 114.718 21.7779 -9.34833 0.000310093 1 
12311 1 116.543 19.5744 -9.56782 0.000665269 1 
12312 1 116.373 21.1043 -7.13196 0.00243243 1 
12313 1 117.537 22.2588 -9.47707 0.000409523 1 
12314 1 117.361 23.7802 -7.03537 0.00223786 1 
12315 1 119.191 21.5759 -7.26356 0.00150716 1 
12316 1 119.015 23.0972 -4.82755 0.0203463 1 
12317 1 120.184 24.2545 -7.1866 0.00247762 1 
12318 1 119.995 25.7695 -4.7831 0.0274267 1 
12319 1 22.9793 23.5475 -4.98611 0.0480848 1 
12320 1 121.672 25.0511 -2.65936 0.213185 1 
12321 1 122.832 26.2641 -4.93981 0.0217804 1 
12322 1 122.68 27.807 -2.57105 0.421092 1 
12323 1 25.6087 25.5421 -2.78733 0.175043 1 
12324 1 124.289 27.1331 -0.466745 6.03794 5 
12325 1 125.52 28.2705 -2.62082 0.235188 1 
12326 1 122.504 29.4332 0.360361 10.8063 5 
12327 1 28.2133 27.5482 -0.0513084 8.88194 5 
12328 1 29.1815 30.2902 -0.349566 6.07979 5 
12352 1 114.063 16.0393 -14.2935 6.11818e-05 1 