ITEM: TIMESTEP
0
ITEM: NUMBER OF ATOMS
2916
ITEM: BOX BOUNDS pp pp ss
0.0000000000000000e+00 4.4641950561999998e+01
0.0000000000000000e+00 3.6224301234999999e+01
-1.1518880358500094e+02 1.1777683984126749e+02
ITEM: ATOMS id type x y z c_csym c_cna 
9422 1 1.64857 3.62259 -14.6008 1.21388e-06 1 
9425 1 2.47514 2.71783 -12.0126 3.90447e-05 1 
10314 1 2.47514 0.905779 -14.2313 2.46851e-06 1 
9520 1 6.60878 3.62259 -14.6008 1.2137e-06 1 
9521 1 7.43536 0.905779 -14.2313 2.46833e-06 1 
9522 1 4.95526 1.81158 -13.1221 8.05518e-06 1 
9523 1 7.43536 2.71783 -12.0126 3.90442e-05 1 
8496 1 11.569 3.62259 -14.6008 1.21387e-06 1 
8499 1 12.3956 2.71783 -12.0126 3.90445e-05 1 
9595 1 12.3956 0.905779 -14.2313 2.46836e-06 1 
9596 1 9.91547 1.81158 -13.1221 8.05514e-06 1 
8576 1 16.5292 3.62259 -14.6008 1.21379e-06 1 
8577 1 17.3558 0.905779 -14.2313 2.4685e-06 1 
8578 1 14.8757 1.81158 -13.1221 8.05514e-06 1 
8579 1 17.3558 2.71783 -12.0126 3.90447e-05 1 
7380 1 21.4894 3.62259 -14.6008 1.21379e-06 1 
8634 1 19.8359 1.81158 -13.1221 8.05517e-06 1 
7383 1 22.316 2.71783 -12.0126 3.90438e-05 1 
8633 1 22.316 0.905779 -14.2313 2.46837e-06 1 
7436 1 26.4497 3.62259 -14.6008 1.21385e-06 1 
7438 1 24.7961 1.81158 -13.1221 8.05521e-06 1 
7437 1 27.2762 0.905779 -14.2313 2.46847e-06 1 
7439 1 27.2762 2.71783 -12.0126 3.90451e-05 1 
7476 1 29.7563 1.81158 -13.1221 8.05512e-06 1 
6127 1 31.4099 3.62259 -14.6008 1.21372e-06 1 
6130 1 32.2364 2.71783 -12.0126 3.90437e-05 1 
6161 1 34.7166 1.81158 -13.1221 8.05513e-06 1 
7475 1 32.2364 0.90578 -14.2313 2.46832e-06 1 
6159 1 36.3701 3.62259 -14.6008 1.21392e-06 1 
6160 1 37.1967 0.905779 -14.2313 2.46849e-06 1 
6162 1 37.1967 2.71783 -12.0126 3.90453e-05 1 
6181 1 39.6768 1.81158 -13.1221 8.0552e-06 1 
10315 1 44.637 1.81158 -13.1221 8.0551e-06 1 
4821 1 41.3303 3.62259 -14.6008 1.21369e-06 1 
4824 1 42.1569 2.71783 -12.0126 3.90438e-05 1 
6180 1 42.1569 0.90578 -14.2313 2.46834e-06 1 
8210 1 0.821775 8.15002 -12.7525 7.97907e-06 1 
8307 1 3.30188 7.24465 -13.8615 2.41497e-06 1 
8309 1 3.3017 9.05582 -11.6442 2.01815e-05 1 
8310 1 4.1284 6.33867 -11.2732 4.75819e-05 1 
9322 1 0.821865 6.33917 -14.9706 8.05171e-07 1 
9423 1 4.12869 4.52813 -13.4915 2.74438e-06 1 
9424 1 1.64854 5.4335 -12.3819 1.87022e-05 1 
7152 1 8.26192 9.05582 -11.6442 2.01825e-05 1 
8306 1 5.78208 6.33917 -14.9706 8.05226e-07 1 
8308 1 5.78199 8.15002 -12.7525 7.97996e-06 1 
8405 1 8.2621 7.24465 -13.8615 2.41479e-06 1 
8407 1 6.60876 5.4335 -12.3819 1.87029e-05 1 
7151 1 10.7422 8.15002 -12.7525 7.97967e-06 1 
7236 1 13.2223 7.24465 -13.8615 2.41493e-06 1 
7238 1 13.2221 9.05582 -11.6442 2.0181e-05 1 
8404 1 10.7423 6.33917 -14.9706 8.05216e-07 1 
8406 1 9.0889 4.52813 -13.4915 2.74411e-06 1 
8408 1 9.08862 6.33867 -11.2732 4.75817e-05 1 
8498 1 11.569 5.4335 -12.3819 1.87024e-05 1 
7235 1 15.7025 6.33917 -14.9706 8.05201e-07 1 
7237 1 15.7024 8.15002 -12.7525 7.97947e-06 1 
7239 1 14.0488 6.33867 -11.2732 4.75827e-05 1 
7315 1 16.5292 5.4335 -12.3819 1.87027e-05 1 
8497 1 14.0491 4.52813 -13.4915 2.7445e-06 1 
5970 1 20.6626 8.15002 -12.7525 7.98009e-06 1 
5971 1 18.1823 9.05582 -11.6442 2.01827e-05 1 
7312 1 20.6627 6.33917 -14.9706 8.05248e-07 1 
7313 1 18.1825 7.24465 -13.8615 2.41484e-06 1 
7314 1 19.0093 4.52813 -13.4915 2.7441e-06 1 
7316 1 19.009 6.33867 -11.2732 4.75815e-05 1 
7382 1 21.4894 5.4335 -12.3819 1.87026e-05 1 
6030 1 25.6229 6.33917 -14.9706 8.05186e-07 1 
6031 1 23.1427 7.24465 -13.8615 2.41493e-06 1 
6032 1 25.6229 8.15002 -12.7525 7.97917e-06 1 
6033 1 23.1426 9.05582 -11.6442 2.01816e-05 1 
6034 1 23.9693 6.33867 -11.2732 4.75823e-05 1 
6086 1 26.4496 5.4335 -12.3819 1.87024e-05 1 
7381 1 23.9696 4.52813 -13.4915 2.74447e-06 1 
4736 1 30.5831 8.15002 -12.7525 7.98032e-06 1 
4737 1 28.1028 9.05582 -11.6442 2.01821e-05 1 
6083 1 30.5832 6.33917 -14.9706 8.05254e-07 1 
6084 1 28.103 7.24465 -13.8615 2.4149e-06 1 
6085 1 28.9298 4.52813 -13.4915 2.7441e-06 1 
6087 1 28.9295 6.33867 -11.2732 4.75814e-05 1 
4772 1 35.5434 6.33917 -14.9706 8.05159e-07 1 
4773 1 33.0632 7.24465 -13.8615 2.4148e-06 1 
4774 1 35.5433 8.15002 -12.7525 7.97892e-06 1 
4775 1 33.063 9.05582 -11.6442 2.01815e-05 1 
4776 1 33.8897 6.33867 -11.2732 4.75832e-05 1 
6128 1 33.89 4.52813 -13.4915 2.74447e-06 1 
6129 1 31.4098 5.4335 -12.3819 1.8703e-05 1 
3524 1 38.0232 9.05582 -11.6442 2.0182e-05 1 
4802 1 38.0234 7.24465 -13.8615 2.41498e-06 1 
4803 1 38.8502 4.52813 -13.4915 2.74426e-06 1 
4804 1 36.3701 5.4335 -12.3819 1.87022e-05 1 
4805 1 38.8499 6.33867 -11.2732 4.7581e-05 1 
3523 1 40.5035 8.15002 -12.7525 7.9803e-06 1 
3537 1 42.9836 7.24465 -13.8615 2.41474e-06 1 
3538 1 42.9834 9.05582 -11.6442 2.01818e-05 1 
3539 1 43.8101 6.33867 -11.2732 4.75829e-05 1 
4801 1 40.5036 6.33917 -14.9706 8.05279e-07 1 
4822 1 43.8104 4.52813 -13.4915 2.74427e-06 1 
4823 1 41.3303 5.4335 -12.3819 1.8703e-05 1 
6956 1 1.64857 12.6787 -14.6008 1.21372e-06 1 
6959 1 2.47514 11.7739 -12.0126 3.90445e-05 1 
8208 1 2.47514 9.96185 -14.2313 2.46844e-06 1 
7054 1 6.60878 12.6787 -14.6008 1.2139e-06 1 
7055 1 7.43536 9.96185 -14.2313 2.46845e-06 1 
7056 1 4.95526 10.8677 -13.1221 8.05515e-06 1 
7057 1 7.43536 11.7739 -12.0126 3.90444e-05 1 
5817 1 11.569 12.6787 -14.6008 1.21371e-06 1 
5820 1 12.3956 11.7739 -12.0126 3.90444e-05 1 
7149 1 12.3956 9.96185 -14.2313 2.46834e-06 1 
7150 1 9.91547 10.8677 -13.1221 8.05513e-06 1 
5897 1 16.5292 12.6787 -14.6008 1.21387e-06 1 
5898 1 17.3558 9.96185 -14.2313 2.46855e-06 1 
5899 1 14.8757 10.8677 -13.1221 8.05513e-06 1 
5900 1 17.3558 11.7739 -12.0126 3.90446e-05 1 
4631 1 21.4894 12.6787 -14.6008 1.21375e-06 1 
5969 1 19.8359 10.8677 -13.1221 8.0552e-06 1 
4634 1 22.316 11.7739 -12.0126 3.90443e-05 1 
5968 1 22.316 9.96185 -14.2313 2.46834e-06 1 
4687 1 26.4497 12.6787 -14.6008 1.21382e-06 1 
4689 1 24.7961 10.8677 -13.1221 8.05522e-06 1 
4688 1 27.2762 9.96185 -14.2313 2.46857e-06 1 
4690 1 27.2762 11.7739 -12.0126 3.90447e-05 1 
4735 1 29.7563 10.8677 -13.1221 8.05513e-06 1 
3466 1 31.4099 12.6787 -14.6008 1.21382e-06 1 
3469 1 32.2364 11.7739 -12.0126 3.90444e-05 1 
3500 1 34.7166 10.8677 -13.1221 8.05519e-06 1 
4734 1 32.2364 9.96185 -14.2313 2.46829e-06 1 
3498 1 36.3701 12.6787 -14.6008 1.21375e-06 1 
3499 1 37.1967 9.96185 -14.2313 2.46855e-06 1 
3501 1 37.1967 11.7739 -12.0126 3.90447e-05 1 
3522 1 39.6768 10.8677 -13.1221 8.05515e-06 1 
8209 1 44.637 10.8677 -13.1221 8.05514e-06 1 
2388 1 41.3303 12.6787 -14.6008 1.21388e-06 1 
2391 1 42.1569 11.7739 -12.0126 3.90444e-05 1 
3521 1 42.1569 9.96185 -14.2313 2.46836e-06 1 
5531 1 0.821775 17.2061 -12.7525 7.97957e-06 1 
5628 1 3.30188 16.3007 -13.8615 2.41474e-06 1 
5630 1 3.3017 18.1119 -11.6442 2.01825e-05 1 
5631 1 4.1284 15.3947 -11.2732 4.75823e-05 1 
6856 1 0.821865 15.3952 -14.9706 8.05221e-07 1 
6957 1 4.12869 13.5842 -13.4915 2.74414e-06 1 
6958 1 1.64854 14.4896 -12.3819 1.87029e-05 1 
4403 1 8.26192 18.1119 -11.6442 2.01818e-05 1 
5627 1 5.78208 15.3952 -14.9706 8.05218e-07 1 
5629 1 5.78199 17.2061 -12.7525 7.97974e-06 1 
5726 1 8.2621 16.3007 -13.8615 2.41507e-06 1 
5728 1 6.60876 14.4896 -12.3819 1.87022e-05 1 
4402 1 10.7422 17.2061 -12.7525 7.97965e-06 1 
4487 1 13.2223 16.3007 -13.8615 2.41466e-06 1 
4489 1 13.2221 18.1119 -11.6442 2.01816e-05 1 
5725 1 10.7423 15.3952 -14.9706 8.05224e-07 1 
5727 1 9.0889 13.5842 -13.4915 2.74428e-06 1 
5729 1 9.08862 15.3947 -11.2732 4.75809e-05 1 
5819 1 11.569 14.4896 -12.3819 1.87028e-05 1 
4486 1 15.7025 15.3952 -14.9706 8.05225e-07 1 
4488 1 15.7024 17.2061 -12.7525 7.97954e-06 1 
4490 1 14.0488 15.3947 -11.2732 4.75834e-05 1 
4566 1 16.5292 14.4896 -12.3819 1.87026e-05 1 
5818 1 14.0491 13.5842 -13.4915 2.74438e-06 1 
3309 1 20.6626 17.2061 -12.7525 7.97969e-06 1 
3310 1 18.1823 18.1119 -11.6442 2.01822e-05 1 
4563 1 20.6627 15.3952 -14.9706 8.05204e-07 1 
4564 1 18.1825 16.3007 -13.8615 2.41499e-06 1 
4565 1 19.0093 13.5842 -13.4915 2.74412e-06 1 
4567 1 19.009 15.3947 -11.2732 4.75815e-05 1 
4633 1 21.4894 14.4896 -12.3819 1.87023e-05 1 
3369 1 25.6229 15.3952 -14.9706 8.05225e-07 1 
3370 1 23.1427 16.3007 -13.8615 2.41484e-06 1 
3371 1 25.6229 17.2061 -12.7525 7.9799e-06 1 
3372 1 23.1426 18.1119 -11.6442 2.01815e-05 1 
3373 1 23.9693 15.3947 -11.2732 4.75819e-05 1 
3425 1 26.4496 14.4896 -12.3819 1.87029e-05 1 
4632 1 23.9696 13.5842 -13.4915 2.7445e-06 1 
2303 1 30.5831 17.2061 -12.7525 7.9796e-06 1 
2304 1 28.1028 18.1119 -11.6442 2.01826e-05 1 
3422 1 30.5832 15.3952 -14.9706 8.05218e-07 1 
3423 1 28.103 16.3007 -13.8615 2.41498e-06 1 
3424 1 28.9298 13.5842 -13.4915 2.74396e-06 1 
3426 1 28.9295 15.3947 -11.2732 4.75816e-05 1 
2339 1 35.5434 15.3952 -14.9706 8.05208e-07 1 
2340 1 33.0632 16.3007 -13.8615 2.41483e-06 1 
2341 1 35.5433 17.2061 -12.7525 7.97951e-06 1 
2342 1 33.063 18.1119 -11.6442 2.01811e-05 1 
2343 1 33.8897 15.3947 -11.2732 4.75829e-05 1 
3467 1 33.89 13.5842 -13.4915 2.74469e-06 1 
3468 1 31.4098 14.4896 -12.3819 1.87023e-05 1 
1439 1 38.0232 18.1119 -11.6442 2.01827e-05 1 
2369 1 38.0234 16.3007 -13.8615 2.41481e-06 1 
2370 1 38.8502 13.5842 -13.4915 2.74395e-06 1 
2371 1 36.3701 14.4896 -12.3819 1.87029e-05 1 
2372 1 38.8499 15.3947 -11.2732 4.75814e-05 1 
1438 1 40.5035 17.2061 -12.7525 7.97973e-06 1 
1452 1 42.9836 16.3007 -13.8615 2.41498e-06 1 
1453 1 42.9834 18.1119 -11.6442 2.01807e-05 1 
1454 1 43.8101 15.3947 -11.2732 4.75825e-05 1 
2368 1 40.5036 15.3952 -14.9706 8.05237e-07 1 
2389 1 43.8104 13.5842 -13.4915 2.74457e-06 1 
2390 1 41.3303 14.4896 -12.3819 1.87023e-05 1 
4207 1 1.64857 21.7347 -14.6008 1.21387e-06 1 
4210 1 2.47514 20.83 -12.0126 3.90447e-05 1 
5529 1 2.47514 19.0179 -14.2313 2.46844e-06 1 
4305 1 6.60878 21.7347 -14.6008 1.21373e-06 1 
4306 1 7.43536 19.0179 -14.2313 2.4685e-06 1 
4307 1 4.95526 19.9237 -13.1221 8.05515e-06 1 
4308 1 7.43536 20.83 -12.0126 3.90441e-05 1 
3156 1 11.569 21.7347 -14.6008 1.21387e-06 1 
3159 1 12.3956 20.83 -12.0126 3.90449e-05 1 
4400 1 12.3956 19.0179 -14.2313 2.46824e-06 1 
4401 1 9.91547 19.9237 -13.1221 8.05514e-06 1 
3236 1 16.5292 21.7347 -14.6008 1.21375e-06 1 
3237 1 17.3558 19.0179 -14.2313 2.46859e-06 1 
3238 1 14.8757 19.9237 -13.1221 8.05499e-06 1 
3239 1 17.3558 20.83 -12.0126 3.90443e-05 1 
2198 1 21.4894 21.7347 -14.6008 1.21387e-06 1 
3308 1 19.8359 19.9237 -13.1221 8.05533e-06 1 
2201 1 22.316 20.83 -12.0126 3.90446e-05 1 
3307 1 22.316 19.0179 -14.2313 2.46827e-06 1 
2254 1 26.4497 21.7347 -14.6008 1.21376e-06 1 
2256 1 24.7961 19.9237 -13.1221 8.05492e-06 1 
2255 1 27.2762 19.0179 -14.2313 2.46867e-06 1 
2257 1 27.2762 20.83 -12.0126 3.90445e-05 1 
2302 1 29.7563 19.9237 -13.1221 8.05537e-06 1 
1381 1 31.4099 21.7347 -14.6008 1.21379e-06 1 
1384 1 32.2364 20.83 -12.0126 3.90444e-05 1 
1415 1 34.7166 19.9237 -13.1221 8.05499e-06 1 
2301 1 32.2364 19.0179 -14.2313 2.46817e-06 1 
1413 1 36.3701 21.7347 -14.6008 1.2139e-06 1 
1414 1 37.1967 19.0179 -14.2313 2.46864e-06 1 
1416 1 37.1967 20.83 -12.0126 3.90451e-05 1 
1437 1 39.6768 19.9237 -13.1221 8.05526e-06 1 
5530 1 44.637 19.9237 -13.1221 8.05498e-06 1 
763 1 41.3303 21.7347 -14.6008 1.21374e-06 1 
766 1 42.1569 20.83 -12.0126 3.90439e-05 1 
1436 1 42.1569 19.0179 -14.2313 2.46829e-06 1 
2870 1 0.821775 26.2622 -12.7525 7.9792e-06 1 
2967 1 3.30188 25.3568 -13.8615 2.41487e-06 1 
2969 1 3.3017 27.168 -11.6442 2.01817e-05 1 
2970 1 4.1284 24.4508 -11.2732 4.75819e-05 1 
4107 1 0.821865 24.4513 -14.9706 8.05181e-07 1 
4208 1 4.12869 22.6403 -13.4915 2.74431e-06 1 
4209 1 1.64854 23.5456 -12.3819 1.87023e-05 1 
1970 1 8.26192 27.168 -11.6442 2.0182e-05 1 
2966 1 5.78208 24.4513 -14.9706 8.05249e-07 1 
2968 1 5.78199 26.2622 -12.7525 7.97995e-06 1 
3065 1 8.2621 25.3568 -13.8615 2.41491e-06 1 
3067 1 6.60876 23.5456 -12.3819 1.87028e-05 1 
1969 1 10.7422 26.2622 -12.7525 7.9795e-06 1 
2054 1 13.2223 25.3568 -13.8615 2.41485e-06 1 
2056 1 13.2221 27.168 -11.6442 2.01814e-05 1 
3064 1 10.7423 24.4513 -14.9706 8.05217e-07 1 
3066 1 9.0889 22.6403 -13.4915 2.7442e-06 1 
3068 1 9.08862 24.4508 -11.2732 4.75817e-05 1 
3158 1 11.569 23.5456 -12.3819 1.87024e-05 1 
2053 1 15.7025 24.4513 -14.9706 8.05217e-07 1 
2055 1 15.7024 26.2622 -12.7525 7.97951e-06 1 
2057 1 14.0488 24.4508 -11.2732 4.75833e-05 1 
2133 1 16.5292 23.5456 -12.3819 1.87026e-05 1 
3157 1 14.0491 22.6403 -13.4915 2.74437e-06 1 
1224 1 20.6626 26.2622 -12.7525 7.97989e-06 1 
1225 1 18.1823 27.168 -11.6442 2.01823e-05 1 
2130 1 20.6627 24.4513 -14.9706 8.05244e-07 1 
2131 1 18.1825 25.3568 -13.8615 2.41479e-06 1 
2132 1 19.0093 22.6403 -13.4915 2.74429e-06 1 
2134 1 19.009 24.4508 -11.2732 4.75816e-05 1 
2200 1 21.4894 23.5456 -12.3819 1.87027e-05 1 
1284 1 25.6229 24.4513 -14.9706 8.05197e-07 1 
1285 1 23.1427 25.3568 -13.8615 2.41504e-06 1 
1286 1 25.6229 26.2622 -12.7525 7.97941e-06 1 
1287 1 23.1426 27.168 -11.6442 2.01815e-05 1 
1288 1 23.9693 24.4508 -11.2732 4.75823e-05 1 
1340 1 26.4496 23.5456 -12.3819 1.87023e-05 1 
2199 1 23.9696 22.6403 -13.4915 2.74423e-06 1 
678 1 30.5831 26.2622 -12.7525 7.97993e-06 1 
679 1 28.1028 27.168 -11.6442 2.01822e-05 1 
1337 1 30.5832 24.4513 -14.9706 8.05263e-07 1 
1338 1 28.103 25.3568 -13.8615 2.41478e-06 1 
1339 1 28.9298 22.6403 -13.4915 2.74433e-06 1 
1341 1 28.9295 24.4508 -11.2732 4.75823e-05 1 
714 1 35.5434 24.4513 -14.9706 8.05168e-07 1 
715 1 33.0632 25.3568 -13.8615 2.41485e-06 1 
716 1 35.5433 26.2622 -12.7525 7.9793e-06 1 
717 1 33.063 27.168 -11.6442 2.01814e-05 1 
718 1 33.8897 24.4508 -11.2732 4.75828e-05 1 
1382 1 33.89 22.6403 -13.4915 2.74425e-06 1 
1383 1 31.4098 23.5456 -12.3819 1.87029e-05 1 
323 1 38.0232 27.168 -11.6442 2.01822e-05 1 
744 1 38.0234 25.3568 -13.8615 2.41499e-06 1 
745 1 38.8502 22.6403 -13.4915 2.74433e-06 1 
746 1 36.3701 23.5456 -12.3819 1.87021e-05 1 
747 1 38.8499 24.4508 -11.2732 4.75809e-05 1 
322 1 40.5035 26.2622 -12.7525 7.98012e-06 1 
336 1 42.9836 25.3568 -13.8615 2.41476e-06 1 
337 1 42.9834 27.168 -11.6442 2.01819e-05 1 
338 1 43.8101 24.4508 -11.2732 4.75833e-05 1 
743 1 40.5036 24.4513 -14.9706 8.05283e-07 1 
764 1 43.8104 22.6403 -13.4915 2.74424e-06 1 
765 1 41.3303 23.5456 -12.3819 1.87032e-05 1 
1774 1 1.64857 30.7908 -14.6008 1.21376e-06 1 
1777 1 2.47514 29.8861 -12.0126 3.90445e-05 1 
2868 1 2.47514 28.074 -14.2313 2.4684e-06 1 
1872 1 6.60878 30.7908 -14.6008 1.21385e-06 1 
1873 1 7.43536 28.074 -14.2313 2.46851e-06 1 
1874 1 4.95526 28.9798 -13.1221 8.0551e-06 1 
1875 1 7.43536 29.8861 -12.0126 3.90443e-05 1 
1071 1 11.569 30.7908 -14.6008 1.21375e-06 1 
1074 1 12.3956 29.8861 -12.0126 3.90444e-05 1 
1967 1 12.3956 28.074 -14.2313 2.46828e-06 1 
1968 1 9.91547 28.9798 -13.1221 8.05519e-06 1 
1151 1 16.5292 30.7908 -14.6008 1.21388e-06 1 
1152 1 17.3558 28.074 -14.2313 2.46848e-06 1 
1153 1 14.8757 28.9798 -13.1221 8.05509e-06 1 
1154 1 17.3558 29.8861 -12.0126 3.90449e-05 1 
573 1 21.4894 30.7908 -14.6008 1.21374e-06 1 
1223 1 19.8359 28.9798 -13.1221 8.05518e-06 1 
576 1 22.316 29.8861 -12.0126 3.90438e-05 1 
1222 1 22.316 28.074 -14.2313 2.46843e-06 1 
629 1 26.4497 30.7908 -14.6008 1.21381e-06 1 
631 1 24.7961 28.9798 -13.1221 8.05514e-06 1 
630 1 27.2762 28.074 -14.2313 2.46841e-06 1 
632 1 27.2762 29.8861 -12.0126 3.90451e-05 1 
677 1 29.7563 28.9798 -13.1221 8.05516e-06 1 
265 1 31.4099 30.7908 -14.6008 1.21382e-06 1 
268 1 32.2364 29.8861 -12.0126 3.90441e-05 1 
299 1 34.7166 28.9798 -13.1221 8.05512e-06 1 
676 1 32.2364 28.074 -14.2313 2.46835e-06 1 
297 1 36.3701 30.7908 -14.6008 1.21376e-06 1 
298 1 37.1967 28.074 -14.2313 2.46855e-06 1 
300 1 37.1967 29.8861 -12.0126 3.90448e-05 1 
321 1 39.6768 28.9798 -13.1221 8.05521e-06 1 
2869 1 44.637 28.9798 -13.1221 8.05509e-06 1 
96 1 41.3303 30.7908 -14.6008 1.21385e-06 1 
99 1 42.1569 29.8861 -12.0126 3.90442e-05 1 
320 1 42.1569 28.074 -14.2313 2.4683e-06 1 
10341 1 3.3017 36.224 -11.6442 2.01826e-05 1 
813 1 0.821775 35.3182 -12.7525 7.9796e-06 1 
885 1 3.30188 34.4129 -13.8615 2.41487e-06 1 
887 1 4.1284 33.5069 -11.2732 4.75816e-05 1 
1674 1 0.821865 33.5074 -14.9706 8.05213e-07 1 
1775 1 4.12869 31.6964 -13.4915 2.74418e-06 1 
1776 1 1.64854 32.6017 -12.3819 1.87026e-05 1 
9597 1 8.26192 36.224 -11.6442 2.01814e-05 1 
884 1 5.78208 33.5074 -14.9706 8.05226e-07 1 
886 1 5.78199 35.3182 -12.7525 7.97962e-06 1 
980 1 8.2621 34.4129 -13.8615 2.41495e-06 1 
982 1 6.60876 32.6017 -12.3819 1.87023e-05 1 
9625 1 13.2221 36.224 -11.6442 2.01815e-05 1 
376 1 10.7422 35.3182 -12.7525 7.97978e-06 1 
433 1 13.2223 34.4129 -13.8615 2.41473e-06 1 
979 1 10.7423 33.5074 -14.9706 8.05249e-07 1 
981 1 9.0889 31.6964 -13.4915 2.74438e-06 1 
983 1 9.08862 33.5069 -11.2732 4.75819e-05 1 
1073 1 11.569 32.6017 -12.3819 1.8703e-05 1 
432 1 15.7025 33.5074 -14.9706 8.05187e-07 1 
434 1 15.7024 35.3182 -12.7525 7.97912e-06 1 
435 1 14.0488 33.5069 -11.2732 4.75833e-05 1 
508 1 16.5292 32.6017 -12.3819 1.87022e-05 1 
1072 1 14.0491 31.6964 -13.4915 2.74427e-06 1 
8635 1 18.1823 36.224 -11.6442 2.01818e-05 1 
134 1 20.6626 35.3182 -12.7525 7.98026e-06 1 
505 1 20.6627 33.5074 -14.9706 8.05276e-07 1 
506 1 18.1825 34.4129 -13.8615 2.41491e-06 1 
507 1 19.0093 31.6964 -13.4915 2.74428e-06 1 
509 1 19.009 33.5069 -11.2732 4.75814e-05 1 
575 1 21.4894 32.6017 -12.3819 1.87029e-05 1 
8657 1 23.1426 36.224 -11.6442 2.01815e-05 1 
172 1 25.6229 33.5074 -14.9706 8.05182e-07 1 
173 1 23.1427 34.4129 -13.8615 2.41499e-06 1 
174 1 25.6229 35.3182 -12.7525 7.97918e-06 1 
175 1 23.9693 33.5069 -11.2732 4.75822e-05 1 
224 1 26.4496 32.6017 -12.3819 1.87022e-05 1 
574 1 23.9696 31.6964 -13.4915 2.74432e-06 1 
7477 1 28.1028 36.224 -11.6442 2.01824e-05 1 
31 1 30.5831 35.3182 -12.7525 7.98021e-06 1 
221 1 30.5832 33.5074 -14.9706 8.05295e-07 1 
222 1 28.103 34.4129 -13.8615 2.41477e-06 1 
223 1 28.9298 31.6964 -13.4915 2.74416e-06 1 
225 1 28.9295 33.5069 -11.2732 4.75819e-05 1 
7493 1 33.063 36.224 -11.6442 2.01807e-05 1 
51 1 35.5434 33.5074 -14.9706 8.05182e-07 1 
52 1 33.0632 34.4129 -13.8615 2.41497e-06 1 
53 1 35.5433 35.3182 -12.7525 7.97901e-06 1 
54 1 33.8897 33.5069 -11.2732 4.75827e-05 1 
266 1 33.89 31.6964 -13.4915 2.74448e-06 1 
267 1 31.4098 32.6017 -12.3819 1.87028e-05 1 
6182 1 38.0232 36.224 -11.6442 2.01828e-05 1 
77 1 38.0234 34.4129 -13.8615 2.41475e-06 1 
78 1 38.8502 31.6964 -13.4915 2.74412e-06 1 
79 1 36.3701 32.6017 -12.3819 1.87025e-05 1 
80 1 38.8499 33.5069 -11.2732 4.75817e-05 1 
6192 1 42.9834 36.224 -11.6442 2.0181e-05 1 
3 1 40.5035 35.3182 -12.7525 7.98002e-06 1 
7 1 42.9836 34.4129 -13.8615 2.41499e-06 1 
8 1 43.8101 33.5069 -11.2732 4.75827e-05 1 
76 1 40.5036 33.5074 -14.9706 8.05259e-07 1 
97 1 43.8104 31.6964 -13.4915 2.74442e-06 1 
98 1 41.3303 32.6017 -12.3819 1.87027e-05 1 
9429 1 0.823008 2.71316 -8.31638 0.000802438 1 
9526 1 3.30225 1.8119 -9.42731 0.000216138 1 
9528 1 3.29949 3.61925 -7.20538 0.00301701 1 
10316 1 0.82198 0.905286 -10.5357 6.01912e-05 1 
8504 1 8.25971 3.61925 -7.20538 0.00301716 1 
9524 1 4.95528 3.6232 -10.9026 9.01451e-05 1 
9525 1 5.7822 0.905286 -10.5357 6.01931e-05 1 
9527 1 5.78322 2.71316 -8.31638 0.00080256 1 
9599 1 8.26247 1.8119 -9.42731 0.000216133 1 
8500 1 9.91549 3.6232 -10.9026 9.01459e-05 1 
8503 1 10.7434 2.71316 -8.31638 0.000802578 1 
8582 1 13.2227 1.8119 -9.42731 0.000216115 1 
8584 1 13.2199 3.61925 -7.20538 0.00301711 1 
9598 1 10.7424 0.905286 -10.5357 6.01922e-05 1 
8580 1 14.8757 3.6232 -10.9026 9.01489e-05 1 
8581 1 15.7026 0.905286 -10.5357 6.01914e-05 1 
8583 1 15.7037 2.71316 -8.31638 0.000802439 1 
7384 1 19.8359 3.6232 -10.9026 9.01426e-05 1 
7387 1 20.6639 2.71316 -8.31638 0.00080266 1 
7388 1 18.1801 3.61925 -7.20538 0.00301703 1 
8636 1 20.6628 0.905286 -10.5357 6.01949e-05 1 
8637 1 18.1829 1.8119 -9.42731 0.00021614 1 
7440 1 24.7961 3.6232 -10.9026 9.01503e-05 1 
7441 1 25.6231 0.905286 -10.5357 6.01902e-05 1 
7442 1 23.1431 1.8119 -9.42731 0.000216123 1 
7443 1 25.6241 2.71316 -8.31638 0.000802425 1 
7444 1 23.1404 3.61925 -7.20538 0.00301721 1 
6131 1 29.7564 3.6232 -10.9026 9.01412e-05 1 
6134 1 30.5843 2.71316 -8.31638 0.000802685 1 
6135 1 28.1006 3.61925 -7.20538 0.00301707 1 
7478 1 30.5833 0.905286 -10.5357 6.01956e-05 1 
7479 1 28.1033 1.8119 -9.42731 0.000216142 1 
6163 1 34.7166 3.6232 -10.9026 9.0152e-05 1 
6164 1 35.5435 0.905286 -10.5357 6.01891e-05 1 
6165 1 33.0636 1.8119 -9.42731 0.000216113 1 
6166 1 35.5445 2.71316 -8.31638 0.000802364 1 
6167 1 33.0608 3.61925 -7.20538 0.00301717 1 
4825 1 39.6768 3.6232 -10.9026 9.01418e-05 1 
4829 1 38.021 3.61925 -7.20538 0.00301699 1 
6184 1 38.0238 1.8119 -9.42731 0.000216142 1 
9426 1 44.637 3.6232 -10.9026 9.01497e-05 1 
4828 1 40.5047 2.71316 -8.31638 0.000802675 1 
4836 1 42.984 1.8119 -9.42731 0.000216119 1 
4837 1 42.9812 3.61925 -7.20538 0.00301722 1 
6183 1 40.5037 0.905286 -10.5357 6.0195e-05 1 
8311 1 1.64874 7.24349 -10.1634 0.000348964 1 
8312 1 4.12837 8.14954 -9.05823 0.00094702 1 
8313 1 1.65183 9.05411 -7.94928 0.00575882 1 
8314 1 2.47277 6.34715 -7.56365 0.00893192 1 
9427 1 2.47434 4.53012 -9.79068 0.000456645 1 
7156 1 6.61205 9.05411 -7.94928 0.00575893 1 
8409 1 6.60896 7.24349 -10.1634 0.000348962 1 
8410 1 7.43456 4.53012 -9.79068 0.000456638 1 
8411 1 4.95299 5.43507 -8.68353 0.00160119 1 
8412 1 7.43299 6.34715 -7.56365 0.00893241 1 
7155 1 9.08859 8.14954 -9.05823 0.000947048 1 
7240 1 11.5692 7.24349 -10.1634 0.000348967 1 
7242 1 11.5723 9.05411 -7.94928 0.00575879 1 
7243 1 12.3932 6.34715 -7.56365 0.0089322 1 
8501 1 12.3948 4.53012 -9.79068 0.000456642 1 
8502 1 9.91321 5.43507 -8.68353 0.00160118 1 
5975 1 16.5325 9.05411 -7.94928 0.00575896 1 
7241 1 14.0488 8.14954 -9.05823 0.000947019 1 
7317 1 16.5294 7.24349 -10.1634 0.00034896 1 
7318 1 17.355 4.53012 -9.79068 0.000456643 1 
7319 1 14.8734 5.43507 -8.68353 0.00160107 1 
7320 1 17.3534 6.34715 -7.56365 0.00893212 1 
5974 1 19.009 8.14954 -9.05823 0.000947035 1 
6035 1 21.4896 7.24349 -10.1634 0.000348965 1 
6037 1 21.4927 9.05411 -7.94928 0.00575887 1 
7386 1 19.8336 5.43507 -8.68353 0.00160125 1 
6038 1 22.3136 6.34715 -7.56365 0.00893249 1 
7385 1 22.3152 4.53012 -9.79068 0.000456637 1 
4741 1 26.4529 9.05411 -7.94928 0.0057589 1 
6036 1 23.9692 8.14954 -9.05823 0.000947038 1 
6088 1 26.4498 7.24349 -10.1634 0.000348959 1 
6090 1 24.7939 5.43507 -8.68353 0.00160108 1 
4740 1 28.9295 8.14954 -9.05823 0.000947032 1 
6089 1 27.2754 4.53012 -9.79068 0.00045664 1 
6091 1 27.2739 6.34715 -7.56365 0.00893215 1 
6133 1 29.7541 5.43507 -8.68353 0.00160127 1 
4777 1 31.41 7.24349 -10.1634 0.000348968 1 
4778 1 33.8897 8.14954 -9.05823 0.000947031 1 
4779 1 31.4131 9.05411 -7.94928 0.00575884 1 
4780 1 32.2341 6.34715 -7.56365 0.00893237 1 
4808 1 34.7143 5.43507 -8.68353 0.00160099 1 
6132 1 32.2356 4.53012 -9.79068 0.000456642 1 
3527 1 38.8499 8.14954 -9.05823 0.000947027 1 
3528 1 36.3733 9.05411 -7.94928 0.00575887 1 
4806 1 36.3703 7.24349 -10.1634 0.000348962 1 
4807 1 37.1959 4.53012 -9.79068 0.000456644 1 
4809 1 37.1943 6.34715 -7.56365 0.00893194 1 
4827 1 39.6745 5.43507 -8.68353 0.00160129 1 
9428 1 44.6347 5.43507 -8.68353 0.00160104 1 
3540 1 41.3305 7.24349 -10.1634 0.000348964 1 
3541 1 43.8101 8.14954 -9.05823 0.000947037 1 
3542 1 41.3336 9.05411 -7.94928 0.00575893 1 
3543 1 42.1545 6.34715 -7.56365 0.00893252 1 
4826 1 42.1561 4.53012 -9.79068 0.000456636 1 
6963 1 0.823008 11.7692 -8.31638 0.00080249 1 
7060 1 3.30225 10.868 -9.42731 0.000216129 1 
7062 1 3.29949 12.6753 -7.20538 0.00301702 1 
8211 1 0.82198 9.96136 -10.5357 6.01925e-05 1 
5825 1 8.25971 12.6753 -7.20538 0.00301716 1 
7058 1 4.95528 12.6793 -10.9026 9.01467e-05 1 
7059 1 5.7822 9.96136 -10.5357 6.01918e-05 1 
7061 1 5.78322 11.7692 -8.31638 0.00080252 1 
7154 1 8.26247 10.868 -9.42731 0.000216139 1 
5821 1 9.91549 12.6793 -10.9026 9.01436e-05 1 
5824 1 10.7434 11.7692 -8.31638 0.000802641 1 
5903 1 13.2227 10.868 -9.42731 0.000216115 1 
5905 1 13.2199 12.6753 -7.20538 0.00301715 1 
7153 1 10.7424 9.96136 -10.5357 6.01945e-05 1 
5901 1 14.8757 12.6793 -10.9026 9.015e-05 1 
5902 1 15.7026 9.96136 -10.5357 6.01904e-05 1 
5904 1 15.7037 11.7692 -8.31638 0.0008024 1 
4635 1 19.8359 12.6793 -10.9026 9.01434e-05 1 
4638 1 20.6639 11.7692 -8.31638 0.000802624 1 
4639 1 18.1801 12.6753 -7.20538 0.00301699 1 
5972 1 20.6628 9.96136 -10.5357 6.01942e-05 1 
5973 1 18.1829 10.868 -9.42731 0.000216143 1 
4691 1 24.7961 12.6793 -10.9026 9.01494e-05 1 
4692 1 25.6231 9.96136 -10.5357 6.01914e-05 1 
4693 1 23.1431 10.868 -9.42731 0.000216122 1 
4694 1 25.6241 11.7692 -8.31638 0.00080247 1 
4695 1 23.1404 12.6753 -7.20538 0.00301718 1 
3470 1 29.7564 12.6793 -10.9026 9.01419e-05 1 
3473 1 30.5843 11.7692 -8.31638 0.000802662 1 
3474 1 28.1006 12.6753 -7.20538 0.00301712 1 
4738 1 30.5833 9.96136 -10.5357 6.01941e-05 1 
4739 1 28.1033 10.868 -9.42731 0.000216145 1 
3502 1 34.7166 12.6793 -10.9026 9.01507e-05 1 
3503 1 35.5435 9.96136 -10.5357 6.01914e-05 1 
3504 1 33.0636 10.868 -9.42731 0.000216112 1 
3505 1 35.5445 11.7692 -8.31638 0.000802411 1 
3506 1 33.0608 12.6753 -7.20538 0.00301717 1 
2392 1 39.6768 12.6793 -10.9026 9.01434e-05 1 
2396 1 38.021 12.6753 -7.20538 0.003017 1 
3526 1 38.0238 10.868 -9.42731 0.000216141 1 
6960 1 44.637 12.6793 -10.9026 9.01484e-05 1 
2395 1 40.5047 11.7692 -8.31638 0.000802611 1 
2403 1 42.984 10.868 -9.42731 0.000216122 1 
2404 1 42.9812 12.6753 -7.20538 0.00301718 1 
3525 1 40.5037 9.96136 -10.5357 6.01928e-05 1 
5632 1 1.64874 16.2996 -10.1634 0.000348964 1 
5633 1 4.12837 17.2056 -9.05823 0.00094703 1 
5634 1 1.65183 18.1102 -7.94928 0.00575895 1 
5635 1 2.47277 15.4032 -7.56365 0.00893207 1 
6961 1 2.47434 13.5862 -9.79068 0.000456645 1 
4407 1 6.61205 18.1102 -7.94928 0.00575882 1 
5730 1 6.60896 16.2996 -10.1634 0.000348962 1 
5731 1 7.43456 13.5862 -9.79068 0.000456636 1 
5732 1 4.95299 14.4911 -8.68353 0.00160113 1 
5733 1 7.43299 15.4032 -7.56365 0.00893237 1 
4406 1 9.08859 17.2056 -9.05823 0.000947039 1 
4491 1 11.5692 16.2996 -10.1634 0.000348963 1 
4493 1 11.5723 18.1102 -7.94928 0.00575898 1 
4494 1 12.3932 15.4032 -7.56365 0.00893234 1 
5822 1 12.3948 13.5862 -9.79068 0.000456638 1 
5823 1 9.91321 14.4911 -8.68353 0.00160126 1 
3314 1 16.5325 18.1102 -7.94928 0.00575877 1 
4492 1 14.0488 17.2056 -9.05823 0.000947026 1 
4568 1 16.5294 16.2996 -10.1634 0.000348967 1 
4569 1 17.355 13.5862 -9.79068 0.000456647 1 
4570 1 14.8734 14.4911 -8.68353 0.00160101 1 
4571 1 17.3534 15.4032 -7.56365 0.00893188 1 
3313 1 19.009 17.2056 -9.05823 0.000947025 1 
3374 1 21.4896 16.2996 -10.1634 0.000348962 1 
3376 1 21.4927 18.1102 -7.94928 0.00575896 1 
4637 1 19.8336 14.4911 -8.68353 0.00160122 1 
3377 1 22.3136 15.4032 -7.56365 0.00893247 1 
4636 1 22.3152 13.5862 -9.79068 0.000456637 1 
2308 1 26.4529 18.1102 -7.94928 0.00575879 1 
3375 1 23.9692 17.2056 -9.05823 0.000947043 1 
3427 1 26.4498 16.2996 -10.1634 0.000348962 1 
3429 1 24.7939 14.4911 -8.68353 0.00160112 1 
2307 1 28.9295 17.2056 -9.05823 0.000947033 1 
3428 1 27.2754 13.5862 -9.79068 0.00045664 1 
3430 1 27.2739 15.4032 -7.56365 0.00893226 1 
3472 1 29.7541 14.4911 -8.68353 0.00160124 1 
2344 1 31.41 16.2996 -10.1634 0.000348962 1 
2345 1 33.8897 17.2056 -9.05823 0.000947024 1 
2346 1 31.4131 18.1102 -7.94928 0.00575902 1 
2347 1 32.2341 15.4032 -7.56365 0.0089324 1 
2375 1 34.7143 14.4911 -8.68353 0.00160105 1 
3471 1 32.2356 13.5862 -9.79068 0.000456636 1 
1442 1 38.8499 17.2056 -9.05823 0.000947036 1 
1443 1 36.3733 18.1102 -7.94928 0.00575886 1 
2373 1 36.3703 16.2996 -10.1634 0.000348965 1 
2374 1 37.1959 13.5862 -9.79068 0.000456646 1 
2376 1 37.1943 15.4032 -7.56365 0.00893195 1 
2394 1 39.6745 14.4911 -8.68353 0.0016012 1 
6962 1 44.6347 14.4911 -8.68353 0.00160112 1 
1455 1 41.3305 16.2996 -10.1634 0.000348964 1 
1456 1 43.8101 17.2056 -9.05823 0.000947027 1 
1457 1 41.3336 18.1102 -7.94928 0.00575879 1 
1458 1 42.1545 15.4032 -7.56365 0.00893236 1 
2393 1 42.1561 13.5862 -9.79068 0.000456638 1 
4214 1 0.823008 20.8253 -8.31638 0.000802451 1 
4311 1 3.30225 19.9241 -9.42731 0.00021613 1 
4313 1 3.29949 21.7314 -7.20538 0.00301699 1 
5532 1 0.82198 19.0174 -10.5357 6.01906e-05 1 
3164 1 8.25971 21.7314 -7.20538 0.00301718 1 
4309 1 4.95528 21.7353 -10.9026 9.01457e-05 1 
4310 1 5.7822 19.0174 -10.5357 6.0194e-05 1 
4312 1 5.78322 20.8253 -8.31638 0.000802552 1 
4405 1 8.26247 19.9241 -9.42731 0.00021614 1 
3160 1 9.91549 21.7353 -10.9026 9.01454e-05 1 
3163 1 10.7434 20.8253 -8.31638 0.000802585 1 
3242 1 13.2227 19.9241 -9.42731 0.000216118 1 
3244 1 13.2199 21.7314 -7.20538 0.00301714 1 
4404 1 10.7424 19.0174 -10.5357 6.01918e-05 1 
3240 1 14.8757 21.7353 -10.9026 9.01481e-05 1 
3241 1 15.7026 19.0174 -10.5357 6.01925e-05 1 
3243 1 15.7037 20.8253 -8.31638 0.000802473 1 
2202 1 19.8359 21.7353 -10.9026 9.01456e-05 1 
2205 1 20.6639 20.8253 -8.31638 0.00080255 1 
2206 1 18.1801 21.7314 -7.20538 0.00301701 1 
3311 1 20.6628 19.0174 -10.5357 6.01926e-05 1 
3312 1 18.1829 19.9241 -9.42731 0.000216133 1 
2258 1 24.7961 21.7353 -10.9026 9.01468e-05 1 
2259 1 25.6231 19.0174 -10.5357 6.01937e-05 1 
2260 1 23.1431 19.9241 -9.42731 0.000216131 1 
2261 1 25.6241 20.8253 -8.31638 0.000802566 1 
2262 1 23.1404 21.7314 -7.20538 0.00301716 1 
1385 1 29.7564 21.7353 -10.9026 9.01448e-05 1 
1388 1 30.5843 20.8253 -8.31638 0.000802543 1 
1389 1 28.1006 21.7314 -7.20538 0.00301715 1 
2305 1 30.5833 19.0174 -10.5357 6.01928e-05 1 
2306 1 28.1033 19.9241 -9.42731 0.000216138 1 
1417 1 34.7166 21.7353 -10.9026 9.01503e-05 1 
1418 1 35.5435 19.0174 -10.5357 6.01903e-05 1 
1419 1 33.0636 19.9241 -9.42731 0.000216119 1 
1420 1 35.5445 20.8253 -8.31638 0.00080244 1 
1421 1 33.0608 21.7314 -7.20538 0.00301706 1 
767 1 39.6768 21.7353 -10.9026 9.01423e-05 1 
771 1 38.021 21.7314 -7.20538 0.00301706 1 
1441 1 38.0238 19.9241 -9.42731 0.000216139 1 
4211 1 44.637 21.7353 -10.9026 9.0149e-05 1 
770 1 40.5047 20.8253 -8.31638 0.000802668 1 
778 1 42.984 19.9241 -9.42731 0.000216121 1 
779 1 42.9812 21.7314 -7.20538 0.00301723 1 
1440 1 40.5037 19.0174 -10.5357 6.01952e-05 1 
2971 1 1.64874 25.3556 -10.1634 0.000348966 1 
2972 1 4.12837 26.2617 -9.05823 0.000947029 1 