ITEM: TIMESTEP
0
ITEM: NUMBER OF ATOMS
9504
ITEM: BOX BOUNDS xy xz yz pp pp ss
-5.4703847529999997e+01 1.4512343022400000e+02 -5.4703847529999997e+01
0.0000000000000000e+00 3.6575252089999999e+01 0.0000000000000000e+00
-1.0323335875189008e+02 1.0932332030430527e+02 0.0000000000000000e+00
ITEM: ATOMS id type x y z c_csym c_cna 
1 1 0.396861 33.6757 -3.49434 0.133573 1 
2 1 0.0442608 30.8869 -2.74478 0.0992801 1 
3 1 1.33913 31.3633 -0.293559 8.16651 2 
4 1 0.747876 36.4282 -4.06405 0.0581483 1 
5 1 1.69301 34.106 -1.12081 8.35679 5 
6 1 0.387101 12.9231 -2.22676 4.75366 5 
7 1 0.0728345 10.2457 -1.34617 6.30771 2 
8 1 0.0644258 20.7467 -6.97809 0.00687736 1 
9 1 0.953709 18.5222 -3.8159 0.0931129 1 
10 1 0.712873 15.7433 -3.09443 0.311923 1 
11 1 1.8753 16.5895 -0.65856 9.60711 5 
12 1 0.780705 26.2321 -8.47325 0.00228311 1 
13 1 0.417765 23.4911 -7.71843 0.0027248 1 
14 1 1.65624 24.0367 -5.22006 0.00888247 1 
15 1 1.2909 21.2941 -4.49882 0.024843 1 
16 1 0.24807 23.4356 -2.78836 0.0268652 1 
17 1 -0.123159 20.7074 -2.10757 0.106656 1 
18 1 2.53125 21.929 -2.05101 0.0873679 1 
19 1 2.11125 19.2213 -1.45464 2.06971 5 
20 1 0.593507 33.9827 -13.1994 0.00033732 1 
21 1 0.246048 31.2237 -12.4798 0.000704139 1 
22 1 1.49635 31.7429 -9.9814 0.00230861 1 
23 1 1.14113 28.9803 -9.23891 0.00220774 1 
24 1 0.133786 31.0569 -7.58679 0.00847583 1 
25 1 2.39679 29.4962 -6.74469 0.0080252 1 
26 1 2.02914 26.7637 -5.96001 0.00924783 1 
27 1 1.03289 28.8211 -4.30352 0.0273225 1 
28 1 0.643264 26.1317 -3.49653 0.0303433 1 
29 1 3.28471 27.3134 -3.41974 0.0451511 1 
30 1 2.8891 24.6279 -2.72534 0.0263422 1 
31 1 1.89296 26.7268 -0.921287 0.268756 1 
32 1 1.84346 34.5052 -10.6918 0.00105564 1 
33 1 0.487333 33.8293 -8.29424 0.00397326 1 
34 1 3.09861 35.0269 -8.19619 0.00478798 1 
35 1 2.75588 32.2611 -7.49794 0.0100067 1 
36 1 1.76263 34.3546 -5.8034 0.0227034 1 
37 1 1.3943 31.5702 -5.1318 0.0416978 1 
38 1 4.03022 32.7708 -5.03751 0.0621787 1 
39 1 3.66269 30.0051 -4.24287 0.041392 1 
40 1 2.65416 32.0588 -2.71962 0.268208 1 
41 1 2.2987 29.3439 -1.75434 0.24307 1 
42 1 4.91544 30.4996 -1.6959 0.647766 1 
43 1 4.55049 27.9105 -0.834222 0.841119 5 
44 1 4.36102 35.5332 -5.73076 0.0536408 1 
45 1 3.08978 34.8567 -3.30081 1.46058 5 
46 1 5.63737 36.0666 -3.36237 6.00058 5 
47 1 5.29683 33.2703 -2.61151 6.01513 5 
48 1 5.51857 35.3302 -0.853958 11.4107 5 
49 1 3.96613 32.5573 -0.384877 12.9039 5 
50 1 0.139361 0.131004 -5.97045 0.00970109 1 
51 1 0.841321 5.60101 -7.36746 0.011801 1 
52 1 0.491243 2.86777 -6.67088 0.00400964 1 
53 1 1.73598 3.37375 -4.126 0.0265569 1 
54 1 1.37623 0.62825 -3.43722 0.0569038 1 
55 1 0.383981 2.71019 -1.73051 4.71809 5 
56 1 90.3797 36.5287 -0.933246 8.11256 5 
57 1 2.6194 1.03747 -0.872004 8.28499 5 
58 1 0.588981 13.3371 -12.1674 0.000511273 1 
59 1 0.26437 10.5866 -11.4273 0.000833508 1 
60 1 1.50896 11.0871 -8.87618 0.00280912 1 
61 1 1.18026 8.33738 -8.1143 0.00491609 1 
62 1 0.180822 10.3819 -6.43836 0.0119747 1 
63 1 2.41306 8.83517 -5.51159 0.0174533 1 
64 1 2.08876 6.11195 -4.76247 0.0487281 1 
65 1 1.05207 8.14335 -3.00971 0.0827446 1 
66 1 0.756573 5.45081 -2.26326 0.332321 1 
67 1 3.36846 6.61677 -2.15363 0.525919 5 
68 1 3.01494 3.83453 -1.6456 4.7851 5 
71 1 1.24661 18.8371 -13.6427 0.000203273 1 
72 1 0.915023 16.0875 -12.9061 0.000319268 1 
73 1 2.15142 16.5973 -10.385 0.00127062 1 
74 1 1.83028 13.8423 -9.63303 0.0018907 1 
75 1 0.797904 15.9113 -7.95774 0.00513766 1 
76 1 0.49453 13.1472 -7.20492 0.0083621 1 
77 1 3.06944 14.3474 -7.09096 0.0077806 1 
78 1 2.74381 11.5851 -6.30201 0.0077041 1 
79 1 1.74039 13.646 -4.65391 0.0447057 1 
80 1 1.40789 10.8788 -3.83628 0.0584217 1 
81 1 3.94632 12.0979 -3.68449 0.0424441 1 
82 1 3.61031 9.35119 -2.86984 0.104631 1 
83 1 2.54838 11.5144 -1.10906 7.06004 2 
88 1 1.58491 21.5857 -14.3788 0.000156718 1 
89 1 0.561547 23.6497 -12.6794 0.00044569 1 
90 1 0.218064 20.903 -11.939 0.000445751 1 
91 1 2.82082 22.101 -11.8628 0.000372166 1 
92 1 2.48112 19.351 -11.127 0.000741724 1 
93 1 1.44804 21.4218 -9.42444 0.00137869 1 
94 1 1.11455 18.6715 -8.69566 0.00302825 1 
95 1 3.71542 19.8697 -8.62533 0.00292917 1 
96 1 3.38662 17.1089 -7.87407 0.00584348 1 
97 1 2.34245 19.198 -6.20944 0.0114126 1 
98 1 2.03719 16.4272 -5.46025 0.029109 1 
99 1 4.62381 17.629 -5.38169 0.0313277 1 
100 1 4.2924 14.8597 -4.52057 0.0461396 1 
101 1 3.28747 16.9746 -2.98661 0.359709 1 
102 1 2.91184 14.2222 -2.01788 5.21272 5 
103 1 5.4825 15.4417 -1.88938 5.11332 5 
104 1 5.116 12.6258 -1.05282 6.84849 2 
113 1 1.2601 29.1528 -14.1639 0.000300155 1 
114 1 0.910498 26.399 -13.4239 0.000338815 1 
115 1 3.51968 27.6012 -13.3378 0.000315167 1 
116 1 3.16868 24.85 -12.6004 0.000338603 1 
117 1 2.15271 26.9147 -10.9117 0.000831242 1 
118 1 1.79743 24.1676 -10.1647 0.000896013 1 
119 1 4.41201 25.3704 -10.0896 0.000704264 1 
120 1 4.05873 22.6228 -9.35623 0.000787479 1 
121 1 3.03857 24.6959 -7.65808 0.00154975 1 
122 1 2.68141 21.9531 -6.92654 0.00247171 1 
123 1 5.3018 23.1566 -6.85768 0.00244571 1 
124 1 4.95303 20.4005 -6.14685 0.0125912 1 
125 1 3.92503 22.5042 -4.43886 0.018583 1 
126 1 3.57447 19.7402 -3.76415 0.102532 1 
127 1 6.20668 20.9527 -3.70841 0.085351 1 
128 1 5.88541 18.1938 -2.92849 0.341564 1 
129 1 4.77436 20.4238 -1.40793 3.28197 5 
130 1 4.47824 17.8077 -0.591299 10.8992 5 
131 1 7.11959 18.9829 -0.500394 9.88258 5 
137 1 1.60777 31.9094 -14.8932 0.000241781 1 
138 1 4.21607 33.1119 -14.7922 0.000236648 1 
139 1 3.86967 30.3559 -14.0696 0.000283543 1 
140 1 2.85727 32.4275 -12.3837 0.0007148 1 
141 1 2.50737 29.6687 -11.6555 0.000748203 1 
142 1 5.12244 30.8733 -11.5572 0.000797181 1 
143 1 4.7683 28.1193 -10.8255 0.000796806 1 
144 1 3.76195 30.1856 -9.1526 0.002145 1 
145 1 3.4008 27.4352 -8.40323 0.00252935 1 
146 1 6.02254 28.6412 -8.30948 0.00267458 1 
147 1 5.66076 25.8994 -7.58011 0.0016144 1 
148 1 4.65431 27.961 -5.88772 0.0106356 1 
149 1 4.2871 25.2384 -5.1523 0.00647506 1 
150 1 6.91427 26.4405 -5.06624 0.00607115 1 
151 1 6.56014 23.71 -4.36435 0.0153975 1 
152 1 5.52553 25.8065 -2.64306 0.0401278 1 
153 1 5.19535 23.1159 -1.97682 0.13665 1 
154 1 7.84962 24.3011 -1.87893 0.242203 1 
155 1 7.44953 21.5902 -1.3424 4.19775 5 
157 1 3.20207 35.185 -13.0965 0.000369417 1 
158 1 5.81095 36.3852 -12.9875 0.000430372 1 
159 1 5.46948 33.6301 -12.278 0.000789317 1 
160 1 4.45586 35.7053 -10.5863 0.00142797 1 
161 1 4.11362 32.9458 -9.88221 0.00271318 1 
162 1 6.73088 34.1478 -9.76498 0.00329827 1 
163 1 6.38361 31.3909 -9.04164 0.00318165 1 
164 1 5.38317 33.4596 -7.39082 0.0132026 1 
165 1 5.02676 30.7004 -6.64711 0.0086707 1 
166 1 7.65039 31.9089 -6.50439 0.0331103 1 
167 1 7.27814 29.1719 -5.77607 0.0150085 1 
168 1 6.29115 31.2136 -4.11402 0.143095 1 
169 1 5.91083 28.4991 -3.35253 0.054446 1 
170 1 8.5066 29.7564 -3.18913 0.0756016 1 
171 1 8.13789 26.9928 -2.54113 0.0838607 1 
172 1 7.16244 29.1163 -0.805924 1.88138 5 
173 1 5.72027 36.2234 -8.08553 0.00842113 1 
174 1 8.00109 34.6636 -7.24235 0.0246531 1 
175 1 6.67107 33.9671 -4.90208 0.199706 1 
176 1 9.22333 35.1745 -4.63913 0.0485155 1 
177 1 8.85228 32.4687 -3.85662 0.101244 1 
178 1 7.8109 34.5481 -2.17718 6.51187 5 
179 1 7.4119 31.8533 -1.37654 5.21046 5 
180 1 10.011 33.103 -1.15949 3.61011 5 
181 1 9.79557 30.3303 -0.694148 2.98361 5 
182 1 10.3519 35.7847 -1.96612 3.50661 5 
187 1 1.95814 3.72237 -14.1143 0.000247885 1 
188 1 1.62148 0.977454 -13.3986 0.000268463 1 
189 1 0.606794 3.03974 -11.6754 0.000636725 1 
190 1 0.26625 0.296517 -10.9638 0.000881757 1 
191 1 2.86236 1.48997 -10.8591 0.000726199 1 
192 1 1.50369 0.80875 -8.42058 0.00236137 1 
200 1 2.29332 6.46706 -14.8373 0.000253063 1 
201 1 1.2788 8.52741 -13.1274 0.000438384 1 
202 1 0.944823 5.78279 -12.3952 0.000835133 1 
203 1 3.53222 6.97675 -12.2886 0.000880312 1 
204 1 3.19804 4.23376 -11.5683 0.000683526 1 
205 1 2.18499 6.29023 -9.83369 0.00318236 1 
206 1 1.84591 3.55006 -9.12228 0.00157841 1 
207 1 4.43545 4.74361 -9.02018 0.00198656 1 
208 1 4.10253 1.99886 -8.32351 0.00203598 1 
209 1 3.0854 4.058 -6.56935 0.00578438 1 
210 1 2.74289 1.31262 -5.88515 0.00702767 1 
211 1 5.3473 2.49328 -5.79769 0.00636597 1 
212 1 3.99298 1.78779 -3.3625 0.0590059 1 
213 1 6.26524 0.218653 -2.71006 4.344 5 
225 1 1.93976 14.0225 -14.6035 0.00014594 1 
226 1 1.60949 11.2743 -13.8649 0.000233462 1 
227 1 4.19872 12.4676 -13.7664 0.000236656 1 
228 1 3.86562 9.72107 -13.0237 0.000504745 1 
229 1 2.84904 11.7803 -11.3217 0.000746279 1 
230 1 2.51911 9.03274 -10.572 0.00164643 1 
231 1 5.09789 10.228 -10.4704 0.00191362 1 
232 1 4.76597 7.4854 -9.73129 0.00307606 1 
233 1 3.75174 9.53588 -7.99799 0.00614587 1 
234 1 3.42215 6.79752 -7.25553 0.0117687 1 
235 1 5.99274 7.99349 -7.16365 0.0112384 1 
236 1 5.67253 5.24851 -6.47563 0.0102529 1 
237 1 4.66329 7.30667 -4.65456 0.0585019 1 
238 1 4.33801 4.54853 -4.03525 0.0375642 1 
239 1 6.92816 5.71916 -3.96055 0.0485832 1 
240 1 6.60832 2.94058 -3.28403 0.0564288 1 
241 1 5.62824 4.95959 -1.56682 5.57114 5 
242 1 5.27359 2.12795 -0.807211 8.14586 5 
243 1 7.90948 3.24588 -0.752264 8.01206 5 
244 1 8.95891 0.547159 -0.00673426 8.23468 5 
262 1 4.53264 15.2161 -14.511 0.000151819 1 
263 1 3.5092 17.2816 -12.819 0.000354206 1 
264 1 3.178 14.5303 -12.0717 0.000472742 1 
265 1 5.76852 15.7244 -11.9828 0.000472371 1 
266 1 5.4325 12.9747 -11.2249 0.000766586 1 
267 1 4.41349 15.0371 -9.53843 0.00168499 1 
268 1 4.08198 12.284 -8.76777 0.00234389 1 
269 1 6.65658 13.4815 -8.67582 0.00246802 1 
270 1 6.31806 10.7345 -7.9051 0.00712377 1 
271 1 5.29592 12.7879 -6.19579 0.00731213 1 
272 1 4.96916 10.039 -5.3969 0.0223879 1 
273 1 7.52159 11.2402 -5.3354 0.0247406 1 
274 1 7.22285 8.49326 -4.59462 0.0442317 1 
275 1 6.16867 10.5306 -2.78352 0.149716 1 
276 1 5.95497 7.77401 -2.07526 0.913736 5 
277 1 8.49604 8.93916 -2.06213 2.2264 5 
278 1 8.21389 6.08672 -1.49745 6.12057 5 
299 1 4.18817 22.784 -14.2954 0.000144377 1 
300 1 3.84578 20.0331 -13.5597 0.000224662 1 
301 1 6.44858 21.2311 -13.4763 0.000269342 1 
302 1 6.10662 18.4771 -12.7353 0.000421403 1 
303 1 5.08321 20.5482 -11.0499 0.000788174 1 
304 1 4.74514 17.7923 -10.3031 0.00138956 1 
305 1 7.34421 18.9895 -10.2254 0.00161014 1 
306 1 7.00091 16.2328 -9.45472 0.00163783 1 
307 1 5.98134 18.3062 -7.79928 0.00639635 1 
308 1 5.64242 15.5449 -6.99795 0.00714696 1 
309 1 8.22908 16.7456 -6.92457 0.00880276 1 
310 1 7.86734 13.9955 -6.12644 0.00527531 1 
311 1 6.86025 16.0675 -4.44304 0.0719399 1 
312 1 6.48957 13.3075 -3.63484 0.0270516 1 
313 1 9.05795 14.544 -3.58528 0.0384219 1 
314 1 8.70184 11.7417 -2.78672 0.16157 1 
315 1 7.62425 13.8407 -1.08852 5.78901 5 
334 1 7.14231 26.7375 -14.9351 0.000119163 1 
335 1 6.79442 23.9846 -14.208 0.000140312 1 
336 1 5.77924 26.0528 -12.514 0.000291735 1 
337 1 5.42876 23.3014 -11.7835 0.000303818 1 
338 1 8.03871 24.5046 -11.696 0.000323238 1 
339 1 7.6895 21.7486 -10.9702 0.000930643 1 
340 1 6.67255 23.8258 -9.27753 0.000810809 1 
341 1 6.3228 21.0697 -8.55381 0.00329471 1 
342 1 8.93415 22.2732 -8.4772 0.00393273 1 
343 1 8.58484 19.5066 -7.72933 0.00715975 1 
344 1 7.57007 21.6044 -6.0802 0.015296 1 
345 1 7.22613 18.8327 -5.3173 0.0354156 1 
346 1 9.83604 20.035 -5.25299 0.0301266 1 
347 1 9.44551 17.2756 -4.37313 0.0909015 1 
348 1 8.49378 19.4013 -2.85876 0.209697 1 
349 1 8.03516 16.6712 -1.79489 5.89823 5 
350 1 10.6817 17.893 -1.82974 0.338323 1 
351 1 10.2149 15.2015 -1.06799 0.427999 1 
363 1 6.47952 31.5592 -13.9661 0.00027239 1 
364 1 6.13071 28.8052 -13.2422 0.000292536 1 
365 1 8.73986 30.0097 -13.1357 0.000297404 1 
366 1 8.38974 27.2575 -12.4168 0.000268063 1 
367 1 7.38321 29.3256 -10.722 0.00090886 1 
368 1 7.02746 26.5758 -9.99983 0.000696588 1 
369 1 9.6394 27.7836 -9.89459 0.000769258 1 
370 1 9.28621 25.0323 -9.18653 0.00101485 1 
371 1 8.27918 27.1083 -7.48099 0.001977 1 
372 1 7.92287 24.3623 -6.77508 0.00316136 1 
373 1 10.5373 25.5729 -6.67559 0.00501481 1 
374 1 10.188 22.8094 -6.00556 0.0185741 1 
375 1 9.18783 24.9163 -4.27033 0.0215604 1 
376 1 8.83776 22.1577 -3.64309 0.0836973 1 
377 1 11.4579 23.3487 -3.56616 0.0923923 1 
378 1 11.1043 20.5819 -2.78871 0.0935125 1 
379 1 10.103 22.7278 -1.26232 4.5369 5 
380 1 9.76196 20.0701 -0.357112 8.29939 5 
381 1 12.3911 21.1403 -0.300222 8.08029 5 
383 1 6.8238 34.3135 -14.6843 0.000232829 1 
384 1 9.42881 35.5136 -14.5705 0.000211469 1 
385 1 9.08641 32.7619 -13.8541 0.000253784 1 
386 1 8.079 34.8314 -12.1609 0.000791905 1 
387 1 7.73503 32.0778 -11.4434 0.000946263 1 
388 1 10.3394 33.2808 -11.3191 0.00102748 1 
389 1 9.99154 30.5325 -10.6033 0.00129272 1 
390 1 8.99434 32.5978 -8.90576 0.00579934 1 
391 1 8.63828 29.8517 -8.18845 0.00451935 1 
392 1 11.2375 31.063 -8.04862 0.00534731 1 
393 1 10.8865 28.3204 -7.36231 0.00261789 1 
394 1 9.87788 30.3983 -5.61684 0.0148517 1 
395 1 9.52111 27.6596 -4.94869 0.00980914 1 
396 1 12.1217 28.8623 -4.83051 0.0218483 1 
397 1 11.8036 26.1136 -4.16362 0.0397433 1 
398 1 10.7294 28.1781 -2.43989 0.226607 1 
399 1 10.497 25.4883 -1.76237 0.549499 1 
400 1 13.154 26.6689 -1.64358 1.17628 5 
401 1 12.7476 23.8511 -1.1948 4.77352 5 
402 1 10.6822 36.0301 -12.0359 0.000657879 1 
403 1 9.33825 35.348 -9.62826 0.00353162 1 
404 1 11.5854 33.8002 -8.76112 0.00323429 1 
405 1 10.5849 35.859 -7.06299 0.00457217 1 
406 1 10.2335 33.1238 -6.31632 0.0205924 1 
407 1 12.8166 34.319 -6.17885 0.0139311 1 
408 1 12.4737 31.6036 -5.4694 0.0236958 1 
409 1 11.4376 33.6733 -3.68075 0.0943551 1 
410 1 11.114 30.9677 -3.03214 0.133284 1 
411 1 13.7424 32.1538 -2.90188 0.421863 1 
412 1 13.3458 29.3348 -2.35053 0.568711 1 
413 1 12.5393 31.4879 -0.563904 3.95789 5 
414 1 11.802 36.3634 -4.46999 0.0472275 1 
415 1 14.0228 34.8545 -3.58393 0.0830233 1 
416 1 12.59 34.2852 -1.02539 6.28545 5 
417 1 15.1966 35.4112 -0.979073 7.07745 5 
418 1 15.5005 32.6302 -0.417017 6.64134 5 
451 1 4.21718 2.17165 -13.2933 0.000251288 1 
452 1 6.48318 0.618248 -12.4781 0.000406385 1 
477 1 4.88376 7.66102 -14.7353 0.000266424 1 
478 1 4.55038 4.91653 -14.01 0.000254779 1 
479 1 7.14194 6.11035 -13.911 0.00023721 1 
480 1 6.81197 3.36489 -13.1911 0.000244222 1 
481 1 5.78778 5.42749 -11.4679 0.000700892 1 
482 1 5.45837 2.68246 -10.7574 0.000695108 1 
483 1 8.05265 3.87377 -10.6591 0.000767987 1 
484 1 7.73058 1.12441 -9.95188 0.00181488 1 
485 1 6.69968 3.18788 -8.22745 0.00236811 1 
486 1 6.37862 0.435515 -7.54321 0.00680016 1 
487 1 8.98279 1.61828 -7.43604 0.00798104 1 
488 1 7.63576 0.910607 -5.0506 0.0340999 1 
519 1 7.47429 8.8552 -14.6388 0.000266261 1 
520 1 6.4523 10.9154 -12.9274 0.000590914 1 
521 1 6.11835 8.17108 -12.1904 0.000848081 1 
522 1 8.70584 9.3661 -12.0999 0.000772074 1 
523 1 8.3769 6.62097 -11.3747 0.0006681 1 
524 1 7.34575 8.68071 -9.64228 0.00273945 1 
525 1 7.02162 5.93637 -8.92794 0.00238876 1 
526 1 9.60826 7.12966 -8.84668 0.0021156 1 
527 1 9.29399 4.37527 -8.13665 0.00268587 1 
528 1 8.25392 6.43699 -6.40211 0.0111135 1 
529 1 7.94778 3.67249 -5.71042 0.00706284 1 
530 1 10.5397 4.85702 -5.63433 0.0111881 1 
531 1 10.2463 2.08924 -4.93727 0.036115 1 
532 1 9.21838 4.10506 -3.205 0.0632554 1 
533 1 8.88737 1.37747 -2.59545 5.47152 5 
534 1 11.5096 2.54291 -2.45265 5.14637 5 
568 1 7.12782 16.4109 -14.4226 0.000176006 1 
569 1 6.78903 13.6618 -13.6741 0.00027057 1 
570 1 9.38283 14.8574 -13.5876 0.000318293 1 
571 1 9.04167 12.1107 -12.8389 0.000640554 1 
572 1 8.01949 14.1703 -11.138 0.000886985 1 
573 1 7.67881 11.4244 -10.3806 0.00212443 1 
574 1 10.267 12.6227 -10.3027 0.00197829 1 
575 1 9.93071 9.87855 -9.56375 0.00202774 1 
576 1 8.89387 11.9361 -7.83144 0.00705248 1 
577 1 8.56442 9.18988 -7.09824 0.00787476 1 
578 1 11.1464 10.3975 -7.03705 0.00569627 1 
579 1 10.8354 7.6346 -6.33987 0.00982073 1 
580 1 9.7751 9.70063 -4.5708 0.0330861 1 
581 1 9.49657 6.9046 -3.91427 0.0520485 1 
582 1 12.0389 8.13856 -3.8668 0.116931 1 
583 1 11.7961 5.30931 -3.17045 0.141005 1 
584 1 10.743 7.26801 -1.44143 7.96011 5 
585 1 10.5508 4.39893 -0.720798 8.77773 5 
586 1 13.1204 5.88525 -0.818677 10.7392 5 
618 1 9.72651 17.6079 -14.3369 0.000223923 1 
619 1 8.70803 19.6752 -12.6527 0.00053336 1 
620 1 8.36337 16.9204 -11.8996 0.000520554 1 
621 1 10.9641 18.1193 -11.8202 0.000615618 1 
622 1 10.6143 15.3685 -11.0601 0.000867153 1 
623 1 9.59732 17.4317 -9.37955 0.00177627 1 
624 1 9.24335 14.6824 -8.60152 0.00225833 1 
625 1 11.8437 15.8856 -8.53569 0.00215233 1 
626 1 11.4845 13.1421 -7.77162 0.00501749 1 
627 1 10.4607 15.2094 -6.06772 0.0055213 1 
628 1 10.0919 12.4618 -5.28849 0.0215885 1 
629 1 12.6998 13.678 -5.2593 0.0143945 1 
630 1 12.3333 10.9226 -4.51769 0.0615674 1 
631 1 11.2788 13.0315 -2.7846 0.0753626 1 
632 1 10.9248 10.2264 -2.00051 2.89508 5 
633 1 13.5528 11.5636 -2.10757 0.106656 1 
634 1 13.1845 8.76674 -1.48191 2.18158 5 
657 1 9.40172 25.1873 -14.1142 0.000134674 1 
658 1 9.05415 22.432 -13.3895 0.000325693 1 
659 1 11.6615 23.6351 -13.2973 0.000343742 1 
660 1 11.3133 20.8764 -12.5686 0.000654917 1 
661 1 10.2984 22.9522 -10.8848 0.00113288 1 
662 1 9.94883 20.1901 -10.1486 0.00192454 1 
663 1 12.5583 21.3938 -10.069 0.00229175 1 
664 1 12.2022 18.6326 -9.30914 0.00224901 1 
665 1 11.1944 20.7093 -7.65964 0.00748741 1 
666 1 10.8292 17.9476 -6.85842 0.0113456 1 
667 1 13.4476 19.1512 -6.80747 0.00669084 1 
668 1 13.0764 16.4171 -6.01657 0.00772067 1 
669 1 12.0747 18.4858 -4.34296 0.0380099 1 
670 1 11.6748 15.7725 -3.54302 0.0296581 1 
671 1 14.3192 16.9878 -3.49653 0.0303433 1 
672 1 13.924 14.2918 -2.78836 0.0268652 1 
673 1 12.8982 16.4305 -1.02263 0.142392 1 
674 1 12.481 13.7536 -0.392208 0.479628 1 
688 1 9.74928 27.9408 -14.8342 0.000101778 1 
689 1 12.3543 29.1438 -14.7281 0.000101099 1 
690 1 12.0085 26.391 -14.0142 0.000135658 1 
691 1 10.9971 28.4629 -12.3103 0.000292648 1 
692 1 10.6483 25.7099 -11.5991 0.000337409 1 
693 1 13.2556 26.9149 -11.4959 0.000413402 1 
694 1 12.9089 24.1578 -10.7913 0.00110443 1 
695 1 11.8968 26.2398 -9.08381 0.00111457 1 
696 1 11.5468 23.4797 -8.39271 0.00503226 1 
697 1 14.1633 24.6855 -8.29424 0.00397326 1 
698 1 13.8097 21.9131 -7.58679 0.00847583 1 
699 1 12.8045 24.0116 -5.92442 0.0242077 1 
700 1 12.45 21.2324 -5.19143 0.0241518 1 
701 1 15.0703 22.4264 -5.1318 0.0416978 1 
702 1 14.7089 19.6773 -4.30352 0.0273225 1 
703 1 13.7202 21.7431 -2.74478 0.0992801 1 
704 1 13.3399 19.0601 -1.79507 0.187554 1 
705 1 15.9747 20.2001 -1.75434 0.24307 1 
706 1 15.5689 17.583 -0.921287 0.268756 1 
714 1 11.6887 33.9626 -13.7373 0.000238254 1 
715 1 11.3443 31.2132 -13.0222 0.000311262 1 
716 1 13.9445 32.414 -12.9078 0.000310003 1 
717 1 13.6009 29.6662 -12.1999 0.000353474 1 
718 1 12.5905 31.7361 -10.4811 0.00123734 1 
719 1 12.2438 28.9908 -9.78035 0.00108834 1 
720 1 14.846 30.1911 -9.6689 0.00115611 1 
721 1 14.5033 27.4431 -8.97958 0.00137725 1 
722 1 13.4862 29.5239 -7.24582 0.00429172 1 
723 1 13.1492 26.7739 -6.56905 0.00485633 1 
724 1 15.7535 27.9681 -6.47133 0.00590178 1 
725 1 15.4386 25.2108 -5.8034 0.0227034 1 
726 1 14.4238 27.2844 -4.06405 0.0581483 1 
727 1 14.0728 24.5319 -3.49434 0.133573 1 
728 1 16.7657 25.7129 -3.30081 1.46058 5 
729 1 16.3301 22.915 -2.71962 0.268208 1 
730 1 15.369 24.9622 -1.12081 8.35679 5 
731 1 15.0151 22.2195 -0.293559 8.16651 2 
732 1 17.6421 23.4135 -0.384877 12.9039 5 
733 1 14.2869 35.161 -13.6207 0.000222287 1 
734 1 12.9357 34.4803 -11.193 0.000798188 1 
735 1 15.5298 35.6768 -11.0747 0.000833852 1 
736 1 15.1869 32.9341 -10.3669 0.0010841 1 
737 1 14.175 34.9968 -8.63407 0.00309588 1 
738 1 13.8302 32.2608 -7.92745 0.0042976 1 
739 1 16.4232 33.4545 -7.82411 0.00365143 1 
740 1 16.0907 30.7139 -7.14096 0.00343506 1 
741 1 15.0679 32.7872 -5.37127 0.0167837 1 
742 1 14.7236 30.0463 -4.72549 0.0273801 1 
743 1 17.3321 31.2166 -4.62894 0.0258677 1 
744 1 17.0185 28.466 -3.97512 0.127158 1 
745 1 15.935 30.4915 -2.25205 1.38301 5 
746 1 15.8691 27.7666 -1.52781 5.46207 5 
747 1 18.4945 28.9216 -1.49392 6.40985 5 
748 1 19.1945 26.1863 -0.853958 11.4107 5 
749 1 16.7655 36.1922 -8.52098 0.00327614 1 
750 1 15.4002 35.5197 -6.06122 0.0144084 1 
751 1 17.6647 33.9681 -5.30213 0.0112546 1 
752 1 16.619 36.0383 -3.50771 0.0635813 1 
753 1 16.3433 33.3372 -2.86715 1.13168 5 
754 1 18.9385 34.5021 -2.82984 2.22309 5 
755 1 18.479 31.6898 -2.12125 3.28258 5 
756 1 18.4838 33.8035 -0.281278 3.59775 5 
757 1 21.3212 34.8945 -0.205893 3.71535 5 
831 1 7.83474 1.30028 -14.9044 0.000131009 1 
875 1 10.43 2.49305 -14.8011 0.000146603 1 
876 1 9.40557 4.55749 -13.0924 0.000252889 1 
877 1 9.08013 1.80958 -12.3727 0.000504476 1 
878 1 11.6742 3.00085 -12.2686 0.000530248 1 
879 1 11.3505 0.251067 -11.5393 0.00090347 1 
880 1 10.3281 2.31268 -9.84495 0.00206415 1 
881 1 12.6027 0.748496 -8.99633 0.0032251 1 
882 1 11.2679 0.0431136 -6.58145 0.012481 1 
929 1 10.0664 10.0499 -14.548 0.00024579 1 
930 1 9.73371 7.30419 -13.8171 0.000218826 1 
931 1 12.3269 8.49845 -13.7279 0.000202561 1 
932 1 11.9983 5.75028 -12.9973 0.000283247 1 
933 1 10.9672 7.81544 -11.2877 0.000637421 1 
934 1 10.6455 5.06507 -10.5646 0.000863425 1 
935 1 13.2365 6.25879 -10.4727 0.00113931 1 
936 1 12.9205 3.50382 -9.73748 0.00203563 1 
937 1 11.886 5.56771 -8.0476 0.00355887 1 
938 1 11.5824 2.80469 -7.32388 0.00836486 1 
939 1 14.1705 4.00339 -7.20492 0.0083621 1 
940 1 13.8568 1.23808 -6.43836 0.0119747 1 
941 1 12.848 3.28685 -4.80715 0.0442202 1 
942 1 12.5202 0.512438 -4.0274 0.0835497 1 
943 1 15.0839 1.73502 -3.83628 0.0584217 1 
944 1 13.7488 1.10192 -1.34617 6.30771 2 
988 1 12.6616 11.2453 -14.462 0.000199073 1 
989 1 11.6364 13.3075 -12.7572 0.000577929 1 
990 1 11.2972 10.5622 -12.0169 0.000613128 1 
991 1 13.894 11.7592 -11.939 0.000445751 1 
992 1 13.5601 9.01105 -11.2055 0.000682652 1 
993 1 12.5231 11.0785 -9.49229 0.00147272 1 
994 1 12.197 8.32818 -8.7693 0.0025469 1 
995 1 14.7905 9.5277 -8.69566 0.00302825 1 
996 1 14.4739 6.76746 -7.95774 0.00513766 1 
997 1 13.42 8.84778 -6.27225 0.0138403 1 
998 1 13.1276 6.06955 -5.54894 0.0223406 1 
999 1 15.7132 7.28343 -5.46025 0.029109 1 
1000 1 15.4163 4.50216 -4.65391 0.0447057 1 
1001 1 14.3888 6.59953 -3.09443 0.311923 1 
1002 1 14.0631 3.77924 -2.22676 4.75366 5 
1003 1 16.5878 5.07842 -2.01788 5.21272 5 
1004 1 16.2243 2.37054 -1.10906 7.06004 2 
1038 1 12.3293 18.8073 -14.2518 0.000275836 1 
1039 1 11.9819 16.0552 -13.5054 0.000335148 1 
1040 1 14.5865 17.2552 -13.4239 0.000338815 1 
1041 1 14.2375 14.5059 -12.6794 0.00044569 1 
1042 1 13.2177 16.5688 -10.9866 0.000827237 1 
1043 1 12.8651 13.8227 -10.2327 0.00144955 1 
1044 1 15.4734 15.0238 -10.1647 0.000896013 1 
1045 1 15.124 12.278 -9.42444 0.00137869 1 
1046 1 14.0937 14.3473 -7.71843 0.0027248 1 
1047 1 13.7404 11.6029 -6.97809 0.00687736 1 
1048 1 16.3574 12.8093 -6.92654 0.00247171 1 
1049 1 16.0184 10.0542 -6.20944 0.0114126 1 
1050 1 14.9669 12.1503 -4.49882 0.024843 1 
1051 1 14.6297 9.37841 -3.8159 0.0931129 1 
1052 1 17.2504 10.5963 -3.76415 0.102532 1 
1053 1 16.9634 7.83081 -2.98661 0.359709 1 
1054 1 15.7872 10.0775 -1.45464 2.06971 5 
1055 1 15.5513 7.44564 -0.65856 9.60711 5 
1056 1 18.1542 8.66393 -0.591299 10.8992 5 
1082 1 12.6765 21.5631 -14.9883 0.000241715 1 
1083 1 15.2837 22.7656 -14.8932 0.000241781 1 
1084 1 14.9361 20.009 -14.1639 0.000300155 1 
1085 1 13.922 22.0799 -12.4798 0.000704139 1 
1086 1 13.5709 19.3209 -11.7408 0.000771116 1 
1087 1 16.1833 20.5249 -11.6555 0.000748203 1 
1088 1 15.8287 17.7709 -10.9117 0.000831242 1 
1089 1 14.8171 19.8364 -9.23891 0.00220774 1 
1090 1 14.4567 17.0882 -8.47325 0.00228311 1 
1091 1 17.0768 18.2914 -8.40323 0.00252935 1 
1092 1 16.7145 15.5521 -7.65808 0.00154975 1 
1093 1 15.7051 17.6199 -5.96001 0.00924783 1 
1094 1 15.3322 14.8929 -5.22006 0.00888247 1 
1095 1 17.9631 16.0946 -5.1523 0.00647506 1 
1096 1 17.601 13.3604 -4.43886 0.018583 1 
1097 1 16.5651 15.4841 -2.72534 0.0263422 1 
1098 1 16.2072 12.7852 -2.05101 0.0873679 1 
1099 1 18.8713 13.9721 -1.97682 0.13665 1 
1100 1 18.4503 11.28 -1.40793 3.28197 5 
1118 1 14.6143 27.5938 -13.9099 0.000154437 1 
1119 1 14.2695 24.8388 -13.1994 0.00033732 1 
1120 1 16.878 26.0411 -13.0965 0.000369417 1 
1121 1 16.5332 23.2837 -12.3837 0.0007148 1 
1122 1 15.5194 25.3614 -10.6918 0.00105564 1 
1123 1 15.1723 22.599 -9.9814 0.00230861 1 
1124 1 17.7896 23.802 -9.88221 0.00271318 1 
1125 1 17.4379 21.0418 -9.1526 0.002145 1 
1126 1 16.4318 23.1172 -7.49794 0.0100067 1 
1127 1 16.0728 20.3524 -6.74469 0.0080252 1 
1128 1 18.7027 21.5565 -6.64711 0.0086707 1 
1129 1 18.3303 18.8172 -5.88772 0.0106356 1 
1130 1 17.3386 20.8613 -4.24287 0.041392 1 
1131 1 16.9607 18.1696 -3.41974 0.0451511 1 
1132 1 19.5868 19.3553 -3.35253 0.054446 1 
1133 1 19.2015 16.6627 -2.64306 0.0401278 1 
1134 1 18.2264 18.7667 -0.834222 0.841119 5 
1144 1 14.9573 30.345 -14.6199 0.000109741 1 
1145 1 17.5596 31.5438 -14.5117 0.000107927 1 
1146 1 17.2198 28.7942 -13.8033 0.000159948 1 
1147 1 16.2033 30.8656 -12.0908 0.000345129 1 
1148 1 15.8624 28.1166 -11.3899 0.000464922 1 
1149 1 18.4698 29.3141 -11.2822 0.000454144 1 
1150 1 18.1318 26.5615 -10.5863 0.00142797 1 
1151 1 17.1134 28.639 -8.8735 0.0013868 1 
1152 1 16.7746 25.8831 -8.19619 0.00478798 1 
1153 1 19.3962 27.0796 -8.08553 0.00842113 1 
1154 1 19.0591 24.3158 -7.39082 0.0132026 1 
1155 1 18.037 26.3894 -5.73076 0.0536408 1 
1156 1 17.7062 23.627 -5.03751 0.0621787 1 
1157 1 20.347 24.8233 -4.90208 0.199706 1 
1158 1 19.9671 22.0698 -4.11402 0.143095 1 
1159 1 18.9728 24.1265 -2.61151 6.01513 5 
1160 1 18.5914 21.3558 -1.6959 0.647766 1 
1161 1 21.0879 22.7095 -1.37654 5.21046 5 
1162 1 20.8384 19.9725 -0.805924 1.88138 5 
1166 1 16.8834 36.3575 -13.5077 0.000249012 1 
1167 1 16.5433 33.6118 -12.7967 0.000297951 1 
1168 1 19.1423 34.8074 -12.6891 0.000294654 1 
1169 1 18.8062 32.0617 -11.9834 0.000319852 1 
1170 1 17.7845 34.1288 -10.2605 0.00100714 1 
1171 1 17.4484 31.386 -9.5633 0.000980459 1 
1172 1 20.0542 32.5761 -9.45957 0.000836614 1 
1173 1 19.7233 29.8306 -8.76585 0.00164415 1 
1174 1 18.6943 31.8985 -7.045 0.00202889 1 
1175 1 18.3724 29.1476 -6.36204 0.00720624 1 
1176 1 20.9873 30.3413 -6.26149 0.0148781 1 
1177 1 20.6893 27.6 -5.59397 0.113283 1 
1178 1 19.6552 29.6746 -3.8776 0.152719 1 
1179 1 19.3133 26.9228 -3.36237 6.00058 5 
1180 1 21.8812 28.0799 -2.98404 7.41982 5 
1181 1 21.4869 25.4043 -2.17718 6.51187 5 
1182 1 20.3853 35.3207 -10.1593 0.000999655 1 
1183 1 19.0241 34.642 -7.73346 0.00323074 1 
1184 1 21.6292 35.827 -7.64256 0.00504775 1 
1185 1 21.3073 33.0812 -6.94458 0.00254754 1 
1186 1 20.2716 35.1393 -5.23232 0.0188542 1 
1187 1 19.9332 32.3901 -4.54314 0.0387066 1 
1188 1 22.5635 33.5688 -4.43341 0.0610921 1 
1189 1 22.2792 30.8527 -3.77749 0.243957 1 
1190 1 21.0813 32.8646 -2.07626 6.98237 5 
1191 1 21.0974 30.1581 -1.43574 10.3767 5 
1192 1 23.7767 31.271 -1.25688 8.92944 5 
1193 1 22.8801 36.3123 -5.15372 0.0319717 1 
1194 1 21.5363 35.655 -2.78228 3.3043 5 
1195 1 23.6869 33.9802 -1.8532 6.65753 5 
1196 1 24.0914 36.0043 -0.126101 8.232 5 
1389 1 13.0234 3.6857 -14.7004 0.000148905 1 
1390 1 12.6949 0.937739 -13.9688 0.000249538 1 
1391 1 15.2855 2.13048 -13.8649 0.000233462 1 
1392 1 13.9403 1.44276 -11.4273 0.000833508 1 
1447 1 15.6157 4.87868 -14.6035 0.00014594 1 
1448 1 14.591 6.9437 -12.9061 0.000319268 1 
1449 1 14.2649 4.19328 -12.1674 0.000511273 1 
1450 1 16.854 5.38653 -12.0717 0.000472742 1 
1451 1 16.525 2.63644 -11.3217 0.000746279 1 
1452 1 15.5062 4.69851 -9.63303 0.0018907 1 
1453 1 15.1849 1.94331 -8.87618 0.00280912 1 
1454 1 17.7579 3.1402 -8.76777 0.00234389 1 
1455 1 17.4277 0.392067 -7.99799 0.00614587 1 
1456 1 16.4198 2.44125 -6.30201 0.0077041 1 
1457 1 18.6451 0.895213 -5.3969 0.0223879 1 
1458 1 17.2863 0.207374 -2.86984 0.104631 1 
1503 1 15.2609 12.4419 -14.3788 0.000156718 1 
1504 1 14.9226 9.69332 -13.6427 0.000203273 1 
1505 1 17.5217 10.8893 -13.5597 0.000224662 1 
1506 1 17.1852 8.13777 -12.819 0.000354206 1 
1507 1 16.1571 10.2071 -11.127 0.000741724 1 
1508 1 15.8274 7.45349 -10.385 0.00127062 1 
1509 1 18.4211 8.64849 -10.3031 0.00138956 1 
1510 1 18.0895 5.8933 -9.53843 0.00168499 1 
1511 1 17.0626 7.96507 -7.87407 0.00584348 1 
1512 1 16.7454 5.20362 -7.09096 0.0077806 1 
1513 1 19.3184 6.40106 -6.99795 0.00714696 1 
1514 1 18.9719 3.64408 -6.19579 0.00731213 1 
1515 1 17.9684 5.71586 -4.52057 0.0461396 1 
1516 1 17.6223 2.95411 -3.68449 0.0424441 1 
1517 1 20.1655 4.16366 -3.63484 0.0270516 1 
1518 1 19.8446 1.38674 -2.78352 0.149716 1 
1519 1 18.792 3.48197 -1.05282 6.84849 2 
1559 1 17.8641 13.6402 -14.2954 0.000144377 1 
1560 1 16.8446 15.7062 -12.6004 0.000338603 1 
1561 1 16.4968 12.9572 -11.8628 0.000372166 1 
1562 1 19.1047 14.1576 -11.7835 0.000303818 1 
1563 1 18.7592 11.4044 -11.0499 0.000788174 1 
1564 1 17.7347 13.479 -9.35623 0.000787479 1 
1565 1 17.3914 10.7259 -8.62533 0.00292917 1 
1566 1 19.9988 11.9259 -8.55381 0.00329471 1 
1567 1 19.6573 9.16235 -7.79928 0.00639635 1 
1568 1 18.629 11.2567 -6.14685 0.0125912 1 
1569 1 18.2998 8.48517 -5.38169 0.0313277 1 
1570 1 20.9021 9.68888 -5.3173 0.0354156 1 
1571 1 20.5362 6.92364 -4.44304 0.0719399 1 
1572 1 19.5614 9.05001 -2.92849 0.341564 1 
1573 1 19.1585 6.29792 -1.88938 5.11332 5 
1574 1 21.7111 7.52739 -1.79489 5.89823 5 
1575 1 21.3002 4.69688 -1.08852 5.78901 5 
1605 1 17.5456 21.2121 -14.0696 0.000283543 1 
1606 1 17.1956 18.4574 -13.3378 0.000315167 1 
1607 1 19.8067 19.6614 -13.2422 0.000292536 1 
1608 1 19.4552 16.909 -12.514 0.000291735 1 
1609 1 18.4443 18.9754 -10.8255 0.000796806 1 
1610 1 18.088 16.2266 -10.0896 0.000704264 1 
1611 1 20.7034 17.432 -9.99983 0.000696588 1 
1612 1 20.3485 14.682 -9.27753 0.000810809 1 
1613 1 19.3367 16.7556 -7.58011 0.0016144 1 
1614 1 18.9778 14.0128 -6.85768 0.00244571 1 
1615 1 21.5988 15.2185 -6.77508 0.00316136 1 
1616 1 21.246 12.4606 -6.0802 0.015296 1 
1617 1 20.2361 14.5662 -4.36435 0.0153975 1 
1618 1 19.8826 11.8089 -3.70841 0.085351 1 
1619 1 22.5137 13.0139 -3.64309 0.0836973 1 
1620 1 22.1697 10.2575 -2.85876 0.209697 1 
1621 1 21.1255 12.4464 -1.3424 4.19775 5 