ITEM: TIMESTEP
0
ITEM: NUMBER OF ATOMS
5040
ITEM: BOX BOUNDS xy xz yz pp pp ss
0 67.261532394 12.026896521
0 50.856366466 0
-105.5944691216867 116.6530028476814 0
ITEM: ATOMS id type x y z c_csym c_cna 
1 1 55.2183 50.4122 -5.73099 0.0723083 1 
2 1 55.592 49.8365 -2.96275 0.262958 1 
9 1 55.2683 39.7586 -13.9988 0.000238188 1 
14 1 56.7504 45.2164 -13.0808 0.000205345 1 
15 1 56.0078 42.4875 -13.541 0.000198559 1 
16 1 56.4388 41.8991 -10.7639 0.000845811 1 
17 1 55.702 39.1683 -11.2156 0.00104219 1 
18 1 56.1196 38.5744 -8.42281 0.00496128 1 
19 1 55.3925 35.8524 -8.87898 0.00407586 1 
20 1 55.8123 35.2589 -6.0899 0.00727805 1 
21 1 55.0817 32.5469 -6.57317 0.00532448 1 
22 1 55.5138 31.9484 -3.81326 0.0511386 1 
23 1 55.1152 28.5745 -1.68612 5.11364 5 
24 1 55.7232 50.0545 -13.3663 0.000240246 1 
25 1 58.2382 50.6691 -12.1434 0.000424575 1 
26 1 57.495 47.9439 -12.6146 0.000252776 1 
27 1 56.1617 49.4655 -10.5847 0.00149493 1 
28 1 55.4147 46.7397 -11.0543 0.000707555 1 
29 1 57.9257 47.3615 -9.8371 0.00187757 1 
30 1 57.181 44.6313 -10.3068 0.00105237 1 
31 1 55.8339 46.1605 -8.27378 0.00533122 1 
32 1 55.0948 43.4259 -8.73093 0.00202882 1 
33 1 57.6047 44.0439 -7.54417 0.00272568 1 
34 1 56.8579 41.3083 -7.98905 0.00296091 1 
35 1 55.5028 42.8366 -5.95186 0.00657833 1 
36 1 57.2741 40.7186 -5.23021 0.0061184 1 
37 1 56.5361 37.979 -5.63849 0.00647881 1 
38 1 55.1769 39.5164 -3.6042 0.0143835 1 
39 1 56.9739 37.3869 -2.86094 0.064859 1 
40 1 56.2223 34.6495 -3.32251 0.113626 1 
41 1 56.45 33.92 -0.611196 3.49347 5 
42 1 55.9558 31.2454 -1.05665 6.95683 5 
43 1 58.6674 50.0841 -9.35389 0.00223328 1 
44 1 56.5758 48.8869 -7.78696 0.00815964 1 
45 1 59.0906 49.499 -6.57317 0.00532448 1 
46 1 58.3507 46.7818 -7.07922 0.00704629 1 
47 1 56.983 48.3027 -5.01248 0.0117003 1 
48 1 56.2449 45.5745 -5.5293 0.0190689 1 
49 1 58.7754 46.1971 -4.36379 0.0474767 1 
50 1 58.0319 43.4529 -4.7929 0.0139526 1 
51 1 56.6519 44.9819 -2.83246 0.117537 1 
52 1 55.9236 42.2566 -3.19356 0.0585081 1 
53 1 58.4842 42.8691 -2.02189 1.15034 5 
54 1 57.6927 40.1593 -2.4966 0.0934256 1 
55 1 55.567 38.9495 -0.872738 0.694807 1 
56 1 59.5228 48.9005 -3.81326 0.0511386 1 
57 1 58.0615 50.3305 -1.7523 0.928561 1 
58 1 57.3908 47.6872 -2.27201 4.79677 5 
59 1 59.9648 48.1975 -1.05665 6.95683 5 
60 1 59.1242 45.5266 -1.68612 5.11364 5 
102 1 55.8535 24.6263 -14.3654 0.000221996 1 
103 1 55.1121 21.8966 -14.8219 0.00017634 1 
104 1 55.5467 21.3064 -12.0521 0.000588284 1 
105 1 55.2468 17.9862 -9.7248 0.0016648 1 
130 1 55.5646 32.1941 -14.1755 0.00011662 1 
131 1 57.3414 30.0836 -13.4337 0.000191439 1 
132 1 56.5973 27.3562 -13.9031 0.000231317 1 
133 1 55.2583 28.8827 -11.8721 0.000483237 1 
134 1 57.0345 26.7714 -11.142 0.00088465 1 
135 1 56.2874 24.0381 -11.6025 0.000790637 1 
136 1 56.7179 23.4488 -8.85072 0.00188223 1 
137 1 55.9779 20.714 -9.28703 0.00123308 1 
138 1 56.4091 20.1181 -6.53153 0.00308067 1 
139 1 55.6883 17.3876 -6.94602 0.00656584 1 
140 1 56.1401 16.7737 -4.16574 0.0448964 1 
141 1 55.4371 14.0876 -4.63461 0.0424585 1 
142 1 55.9232 13.4021 -1.8913 5.99672 5 
143 1 55.1624 10.74 -2.34305 4.35927 5 
158 1 59.1211 38.8487 -14.8219 0.00017634 1 
160 1 57.0422 37.6448 -13.2486 0.000362981 1 
161 1 56.3048 34.9188 -13.7083 0.000310218 1 
162 1 58.8192 35.531 -12.5023 0.000569679 1 
163 1 58.0825 32.8076 -12.9634 0.000359598 1 
164 1 56.7402 34.33 -10.9236 0.0013399 1 
165 1 56.0022 31.6087 -11.398 0.000561414 1 
166 1 58.5244 32.2201 -10.1862 0.00115383 1 
167 1 57.7827 29.4993 -10.6653 0.000589507 1 
168 1 56.4403 31.0254 -8.62764 0.00253214 1 
169 1 55.6928 28.2994 -9.11017 0.00177987 1 
170 1 58.2314 28.9146 -7.9037 0.0028716 1 
171 1 57.4728 26.188 -8.39645 0.0036694 1 
172 1 56.1301 27.7146 -6.36883 0.0085923 1 
173 1 55.3697 24.978 -6.82983 0.00465003 1 
174 1 57.9182 25.6084 -5.6795 0.0237293 1 
175 1 57.1492 22.8582 -6.1141 0.00384494 1 
176 1 55.7996 24.3974 -4.11418 0.0270288 1 
177 1 55.0494 21.6468 -4.50388 0.00923849 1 
178 1 57.5894 22.2847 -3.38305 0.0312839 1 
179 1 56.8505 19.5168 -3.79944 0.0152503 1 
180 1 55.5221 21.0319 -1.78191 0.208724 1 
181 1 57.3203 18.954 -1.10999 0.892835 5 
182 1 56.6895 16.1583 -1.32873 5.30145 5 
189 1 58.8305 46.4199 -14.6434 9.57422e-05 1 
191 1 60.6063 44.3083 -13.9031 0.000231317 1 
192 1 59.8624 41.5784 -14.3654 0.000221996 1 
193 1 58.5222 43.1047 -12.3376 0.000456116 1 
194 1 57.7802 40.3736 -12.7939 0.000406852 1 
195 1 60.2964 40.9902 -11.6025 0.000790637 1 
196 1 59.5556 38.2586 -12.0521 0.000588284 1 
197 1 58.2073 39.7824 -10.0211 0.00152217 1 
198 1 57.473 37.0538 -10.4672 0.00134656 1 
199 1 59.9869 37.6661 -9.28703 0.00123308 1 
200 1 59.2557 34.9384 -9.7248 0.0016648 1 
201 1 57.9002 36.4592 -7.6885 0.00242206 1 
202 1 57.1748 33.7389 -8.13616 0.00482703 1 
203 1 59.6973 34.3398 -6.94602 0.00656584 1 
204 1 58.9771 31.6313 -7.41033 0.00568009 1 
205 1 57.6155 33.1371 -5.34414 0.0308639 1 
206 1 56.8871 30.4398 -5.88402 0.0191945 1 
207 1 59.4461 31.0397 -4.63461 0.0424585 1 
208 1 58.6955 28.3176 -5.14165 0.0323589 1 
209 1 57.3352 29.8568 -3.19989 0.378963 1 
210 1 56.5695 27.1375 -3.64684 0.11489 1 
211 1 59.1714 27.6921 -2.34305 4.35927 5 
212 1 58.3773 25.0222 -3.02448 0.245643 1 
213 1 57.0871 26.427 -0.969736 7.74807 5 
214 1 56.196 23.804 -1.42832 1.46023 5 
215 1 58.7268 24.2966 -0.432032 8.77123 5 
216 1 58.0738 21.6889 -0.679077 0.817378 5 
218 1 59.5735 49.1462 -14.1755 0.00011662 1 
219 1 62.0914 49.7597 -12.9634 0.000359598 1 
220 1 61.3504 47.0357 -13.4337 0.000191439 1 
221 1 60.0112 48.5608 -11.398 0.000561414 1 
222 1 59.2673 45.8348 -11.8721 0.000483237 1 
223 1 61.7917 46.4514 -10.6653 0.000589507 1 
224 1 61.0435 43.7235 -11.142 0.00088465 1 
225 1 59.7018 45.2516 -9.11017 0.00177987 1 
226 1 58.9516 42.5174 -9.57502 0.00159351 1 
227 1 61.4818 43.1401 -8.39645 0.0036694 1 
228 1 60.7268 40.4009 -8.85072 0.00188223 1 
229 1 59.3786 41.9301 -6.82983 0.00465003 1 
230 1 58.6303 39.1892 -7.2567 0.00247713 1 
231 1 61.1582 39.8103 -6.1141 0.00384494 1 
232 1 60.418 37.0702 -6.53153 0.00308067 1 
233 1 59.0583 38.5989 -4.50388 0.00923849 1 
234 1 58.328 35.8589 -4.92043 0.0100789 1 
235 1 60.8595 36.4689 -3.79944 0.0152503 1 
236 1 60.1491 33.7258 -4.16574 0.0448964 1 
237 1 58.7608 35.2324 -2.19367 0.35313 1 
238 1 58.0843 32.5198 -2.51209 0.484338 1 
239 1 60.6984 33.1105 -1.32873 5.30145 5 
240 1 59.9322 30.3542 -1.8913 5.99672 5 
241 1 57.4869 29.0885 -0.578748 9.76212 5 
242 1 62.5334 49.1722 -10.1862 0.00115383 1 
243 1 61.1838 50.691 -8.13616 0.00482703 1 
244 1 60.4492 47.9775 -8.62764 0.00253214 1 
245 1 62.9861 48.5834 -7.41033 0.00568009 1 
246 1 62.2404 45.8667 -7.9037 0.0028716 1 
247 1 60.8961 47.392 -5.88402 0.0191945 1 
248 1 60.1391 44.6668 -6.36883 0.0085923 1 
249 1 62.7044 45.2697 -5.14165 0.0323589 1 
250 1 61.9272 42.5606 -5.6795 0.0237293 1 
251 1 60.5784 44.0896 -3.64684 0.11489 1 
252 1 59.8086 41.3496 -4.11418 0.0270288 1 
253 1 62.3863 41.9744 -3.02448 0.245643 1 
254 1 61.5983 39.2368 -3.38305 0.0312839 1 
255 1 60.205 40.7561 -1.42832 1.46023 5 
256 1 59.5311 37.984 -1.78191 0.208724 1 
257 1 62.0827 38.6411 -0.679077 0.817378 5 
258 1 61.3293 35.9062 -1.10999 0.892835 5 
259 1 61.6244 50.0892 -5.34414 0.0308639 1 
260 1 64.1581 50.6779 -4.16574 0.0448964 1 
261 1 63.455 47.9918 -4.63461 0.0424585 1 
262 1 62.0933 49.4719 -2.51209 0.484338 1 
263 1 61.3442 46.8089 -3.19989 0.378963 1 
264 1 63.9411 47.3064 -1.8913 5.99672 5 
265 1 63.1803 44.6443 -2.34305 4.35927 5 
266 1 61.4959 46.0406 -0.578748 9.76212 5 
267 1 61.096 43.3791 -0.969736 7.74807 5 
268 1 62.7358 41.2487 -0.432032 8.77123 5 
269 1 64.7074 50.0626 -1.32873 5.30145 5 
397 1 56.4524 9.49243 -14.7303 0.000183947 1 
399 1 56.1503 6.17575 -12.4404 0.000658991 1 
400 1 55.4062 3.44369 -12.8918 0.000397084 1 
401 1 55.847 2.8535 -10.1408 0.00107594 1 
402 1 55.1094 0.124214 -10.5748 0.00110651 1 
444 1 56.1526 17.0557 -14.5343 0.000262033 1 
445 1 55.4129 14.3313 -14.9976 0.000131063 1 
446 1 57.9358 14.9431 -13.7951 0.000282679 1 
447 1 57.1955 12.2191 -14.2611 0.000151133 1 
448 1 55.856 13.7444 -12.2263 0.000360521 1 
449 1 55.1128 11.0204 -12.7011 0.000346277 1 
450 1 57.6427 11.6334 -11.4961 0.000575497 1 
451 1 56.8969 8.90763 -11.9756 0.000761321 1 
452 1 55.5578 10.4378 -9.94519 0.00151589 1 
453 1 2.10867 8.32626 -9.23566 0.00395554 1 
454 1 1.35824 5.5898 -9.701 0.00194589 1 
455 1 55.2433 7.12074 -7.69123 0.00558751 1 
456 1 1.80286 5.00775 -6.98065 0.00422199 1 
457 1 1.05581 2.26476 -7.40074 0.00343097 1 
458 1 1.51512 1.68289 -4.67518 0.0215913 1 
494 1 57.632 22.5116 -13.6276 0.000338494 1 
495 1 56.8912 19.782 -14.0798 0.000253762 1 
496 1 59.4152 20.3958 -12.8918 0.000397084 1 
497 1 58.6748 17.6675 -13.3396 0.000318782 1 
498 1 57.3289 19.1909 -11.3137 0.000646014 1 
499 1 56.5941 16.4657 -11.7599 0.00104006 1 
500 1 59.1184 17.0763 -10.5748 0.00110651 1 
501 1 58.3819 14.3545 -11.025 0.00104179 1 
502 1 57.0416 15.873 -8.979 0.00632685 1 
503 1 56.3051 13.1576 -9.45463 0.00108861 1 
504 1 3.60088 13.7653 -8.25122 0.00468353 1 
505 1 2.86303 11.0486 -8.73003 0.00400343 1 
506 1 56.7665 12.5684 -6.67819 0.00328235 1 
507 1 56.011 9.85967 -7.20173 0.00937463 1 
508 1 3.33578 10.4588 -5.95103 0.0392862 1 
509 1 2.5525 7.75067 -6.5218 0.0270431 1 
510 1 56.4841 9.28422 -4.47246 0.0673563 1 
511 1 55.6867 6.5329 -4.98463 0.0221647 1 
512 1 2.9885 7.17642 -3.84162 0.189281 1 
513 1 2.23708 4.42528 -4.27094 0.0373653 1 
514 1 56.1556 5.89931 -2.29235 0.318546 1 
515 1 55.3905 3.2063 -2.70691 0.0972856 1 
516 1 2.73383 3.89824 -1.45909 5.0056 5 
517 1 2.025 1.16956 -1.96841 0.177161 1 
518 1 0.0235291 0.000820147 -0.275863 6.97421 5 
543 1 59.4218 31.2834 -14.9976 0.000131063 1 
545 1 61.2045 29.1712 -14.2611 0.000151133 1 
546 1 60.4614 26.4445 -14.7303 0.000183947 1 
547 1 59.1218 27.9725 -12.7011 0.000346277 1 
548 1 58.3759 25.243 -13.17 0.000453646 1 
549 1 60.9058 25.8598 -11.9756 0.000761321 1 
550 1 60.1593 23.1279 -12.4404 0.000658991 1 
551 1 58.8143 24.6576 -10.4209 0.00157903 1 
552 1 58.0682 21.9222 -10.872 0.000882184 1 
553 1 5.36721 22.5419 -9.701 0.00194589 1 
554 1 59.856 19.8056 -10.1408 0.00107594 1 
555 1 58.5039 21.332 -8.12838 0.00187363 1 
556 1 57.7679 18.5969 -8.55162 0.00167596 1 
557 1 5.06478 19.2169 -7.40074 0.00343097 1 
558 1 4.33473 16.4839 -7.81013 0.00557579 1 
559 1 58.2165 17.9987 -5.7958 0.00501939 1 
560 1 57.5066 15.2732 -6.17778 0.0494928 1 
561 1 4.8115 15.8969 -5.04887 0.0683837 1 
562 1 4.06902 13.1725 -5.47344 0.0246086 1 
563 1 58.0204 14.6662 -3.33794 1.52859 5 
564 1 57.2443 11.9684 -3.8984 0.0394157 1 
565 1 4.50355 12.5588 -2.67738 2.34833 5 
566 1 3.86497 9.8644 -3.14326 5.59549 5 
567 1 57.7173 11.2235 -1.0901 7.52871 5 
568 1 56.9589 8.58754 -1.79122 9.36928 5 
569 1 5.52888 8.63651 -0.112358 4.53275 5 
570 1 3.5352 6.59156 -1.1382 9.24906 5 
589 1 60.9002 36.7342 -14.0798 0.000253762 1 
590 1 60.1616 34.0078 -14.5343 0.000262033 1 
591 1 62.6838 34.6196 -13.3396 0.000318782 1 
592 1 61.9448 31.8952 -13.7951 0.000282679 1 
593 1 60.603 33.4179 -11.7599 0.00104006 1 
594 1 59.865 30.6966 -12.2263 0.000360521 1 
595 1 62.3909 31.3066 -11.025 0.00104179 1 
596 1 61.6517 28.5855 -11.4961 0.000575497 1 
597 1 60.3141 30.1097 -9.45463 0.00108861 1 
598 1 59.5668 27.3899 -9.94519 0.00151589 1 
599 1 6.872 28.0007 -8.73003 0.00400343 1 
600 1 6.11764 25.2784 -9.23566 0.00395554 1 
601 1 60.02 26.8118 -7.20173 0.00937463 1 
602 1 59.2523 24.0729 -7.69123 0.00558751 1 
603 1 6.56147 24.7028 -6.5218 0.0270431 1 
604 1 5.81183 21.9599 -6.98065 0.00422199 1 
605 1 59.6957 23.485 -4.98463 0.0221647 1 
606 1 58.9393 20.7441 -5.40078 0.00608476 1 
607 1 6.24604 21.3774 -4.27094 0.0373653 1 
608 1 5.52409 18.635 -4.67518 0.0215913 1 
609 1 59.3995 20.1584 -2.70691 0.0972856 1 
610 1 58.6819 17.4015 -3.05121 0.124487 1 
611 1 6.03396 18.1217 -1.96841 0.177161 1 
612 1 5.44157 15.4223 -2.33616 2.77446 5 
613 1 4.03249 16.9529 -0.275863 6.97421 5 
614 1 4.35455 14.1171 -0.273698 6.94953 5 
615 1 5.06779 11.4239 -0.118639 1.92624 5 
626 1 64.4703 43.3967 -14.7303 0.000183947 1 
628 1 62.3849 42.1951 -13.17 0.000453646 1 
629 1 61.6409 39.4637 -13.6276 0.000338494 1 
630 1 64.1683 40.08 -12.4404 0.000658991 1 
631 1 63.4241 37.3479 -12.8918 0.000397084 1 
632 1 62.0772 38.8744 -10.872 0.000882184 1 
633 1 61.3378 36.143 -11.3137 0.000646014 1 
634 1 63.865 36.7577 -10.1408 0.00107594 1 
635 1 63.1274 34.0285 -10.5748 0.00110651 1 
636 1 61.7769 35.549 -8.55162 0.00167596 1 
637 1 61.0506 32.8251 -8.979 0.00632685 1 
638 1 8.34369 33.4361 -7.81013 0.00557579 1 
639 1 7.60984 30.7175 -8.25122 0.00468353 1 
640 1 61.5156 32.2254 -6.17778 0.0494928 1 
641 1 60.7754 29.5205 -6.67819 0.00328235 1 
642 1 8.07798 30.1247 -5.47344 0.0246086 1 
643 1 7.34474 27.4109 -5.95103 0.0392862 1 
644 1 61.2532 28.9205 -3.8984 0.0394157 1 
645 1 60.493 26.2363 -4.47246 0.0673563 1 
646 1 7.87394 26.8165 -3.14326 5.59549 5 
647 1 6.99746 24.1285 -3.84162 0.189281 1 
648 1 60.9679 25.5397 -1.79122 9.36928 5 
649 1 60.1646 22.8514 -2.29235 0.318546 1 
650 1 7.54416 23.5437 -1.1382 9.24906 5 
651 1 6.7428 20.8504 -1.45909 5.0056 5 
653 1 63.4308 48.2355 -14.9976 0.000131063 1 
654 1 65.9538 48.8473 -13.7951 0.000282679 1 
655 1 65.2134 46.1233 -14.2611 0.000151133 1 
656 1 63.8739 47.6487 -12.2263 0.000360521 1 
657 1 63.1307 44.9246 -12.7011 0.000346277 1 
658 1 65.6606 45.5376 -11.4961 0.000575497 1 
659 1 64.9148 42.8119 -11.9756 0.000761321 1 
660 1 63.5757 44.3421 -9.94519 0.00151589 1 
661 1 62.8233 41.6097 -10.4209 0.00157903 1 
662 1 10.1266 42.2305 -9.23566 0.00395554 1 
663 1 9.37618 39.494 -9.701 0.00194589 1 
664 1 63.2613 41.025 -7.69123 0.00558751 1 
665 1 62.5129 38.2841 -8.12838 0.00187363 1 
666 1 9.82079 38.912 -6.98065 0.00422199 1 
667 1 9.07374 36.169 -7.40074 0.00343097 1 
668 1 62.9483 37.6963 -5.40078 0.00608476 1 
669 1 62.2255 34.9508 -5.7958 0.00501939 1 
670 1 9.53306 35.5871 -4.67518 0.0215913 1 
671 1 8.82046 32.849 -5.04887 0.0683837 1 
672 1 62.6908 34.3536 -3.05121 0.124487 1 
673 1 62.0293 31.6183 -3.33794 1.52859 5 
674 1 9.45054 32.3744 -2.33616 2.77446 5 
675 1 8.51252 29.5109 -2.67738 2.34833 5 
676 1 8.36351 31.0692 -0.273698 6.94953 5 
677 1 61.7263 28.1756 -1.0901 7.52871 5 
678 1 9.07676 28.376 -0.118639 1.92624 5 
679 1 9.53785 25.5886 -0.112358 4.53275 5 
680 1 64.612 50.37 -11.7599 0.00104006 1 
681 1 66.3998 48.2587 -11.025 0.00104179 1 
682 1 65.0595 49.7772 -8.979 0.00632685 1 
683 1 64.3231 47.0618 -9.45463 0.00108861 1 
684 1 11.6188 47.6696 -8.25122 0.00468353 1 
685 1 10.881 44.9529 -8.73003 0.00400343 1 
686 1 64.7844 46.4727 -6.67819 0.00328235 1 
687 1 64.029 43.7639 -7.20173 0.00937463 1 
688 1 11.3537 44.363 -5.95103 0.0392862 1 
689 1 10.5704 41.6549 -6.5218 0.0270431 1 
690 1 64.502 43.1885 -4.47246 0.0673563 1 
691 1 63.7046 40.4371 -4.98463 0.0221647 1 
692 1 11.0064 41.0807 -3.84162 0.189281 1 
693 1 10.255 38.3295 -4.27094 0.0373653 1 
694 1 64.1735 39.8036 -2.29235 0.318546 1 
695 1 63.4084 37.1105 -2.70691 0.0972856 1 
696 1 10.7518 37.8025 -1.45909 5.0056 5 
697 1 10.0429 35.0738 -1.96841 0.177161 1 
698 1 8.04146 33.9051 -0.275863 6.97421 5 
699 1 12.3527 50.3882 -7.81013 0.00557579 1 
700 1 65.5245 49.1775 -6.17778 0.0494928 1 
701 1 12.8294 49.8012 -5.04887 0.0683837 1 
702 1 12.087 47.0768 -5.47344 0.0246086 1 
703 1 66.0383 48.5705 -3.33794 1.52859 5 
704 1 65.2622 45.8726 -3.8984 0.0394157 1 
705 1 12.5215 46.4631 -2.67738 2.34833 5 
706 1 11.8829 43.7686 -3.14326 5.59549 5 
707 1 65.7353 45.1278 -1.0901 7.52871 5 
708 1 64.9768 42.4918 -1.79122 9.36928 5 
709 1 13.5468 42.5408 -0.112358 4.53275 5 
710 1 11.5531 40.4958 -1.1382 9.24906 5 
711 1 13.4595 49.3265 -2.33616 2.77446 5 
712 1 12.3725 48.0213 -0.273698 6.94953 5 
713 1 13.0857 45.3281 -0.118639 1.92624 5 
1023 1 1.51499 1.91773 -14.9116 0.00014641 1 
1077 1 3.00307 7.3777 -13.998 0.000319046 1 
1078 1 2.25823 4.64716 -14.4584 0.000259 1 
1079 1 4.79141 5.26107 -13.2652 0.000569381 1 
1080 1 4.04593 2.53022 -13.7206 0.000260486 1 
1081 1 2.7039 4.05883 -11.71 0.000876177 1 
1082 1 1.9599 1.32767 -12.1544 0.000425943 1 
1083 1 4.49736 1.94082 -10.9719 0.000866329 1 
1084 1 2.40907 0.738661 -9.40317 0.00163866 1 
1130 1 6.56891 14.0287 -14.6264 9.8321e-05 1 
1132 1 4.48798 12.8302 -13.0596 0.000285958 1 
1133 1 3.74683 10.1058 -13.5292 0.000239171 1 
1134 1 6.27791 10.7163 -12.3274 0.000318605 1 
1135 1 5.53663 7.99008 -12.7958 0.000252627 1 
1136 1 4.19835 9.52057 -10.7745 0.001523 1 
1137 1 3.45235 6.7924 -11.2514 0.00159236 1 
1138 1 5.99568 7.40102 -10.0381 0.00387427 1 
1139 1 5.24533 4.67446 -10.5252 0.00365714 1 
1140 1 3.90566 6.2111 -8.52176 0.0106077 1 
1141 1 3.15112 3.47258 -8.9764 0.003136 1 
1142 1 5.70321 4.0952 -7.81193 0.0353099 1 
1143 1 4.95842 1.35751 -8.23069 0.00519709 1 
1144 1 3.59917 2.89952 -6.26241 0.0169278 1 
1145 1 2.87269 0.15988 -6.66031 0.0121678 1 
1146 1 5.45097 0.803368 -5.49496 0.0682457 1 
1183 1 6.2672 21.5993 -14.4584 0.000259 1 
1184 1 5.52396 18.8699 -14.9116 0.00014641 1 
1185 1 8.0549 19.4823 -13.7206 0.000260486 1 
1186 1 7.31104 16.7543 -14.1717 0.000135673 1 
1187 1 5.96886 18.2798 -12.1544 0.000425943 1 
1188 1 5.22787 15.5536 -12.6016 0.000310589 1 
1189 1 7.76072 16.1647 -11.4149 0.000422851 1 
1190 1 7.01809 13.4395 -11.8642 0.000295678 1 
1191 1 5.67773 14.9643 -9.83975 0.000998104 1 
1192 1 4.93887 12.2425 -10.2935 0.00124577 1 
1193 1 7.472 12.8497 -9.10279 0.00147848 1 
1194 1 6.73462 10.128 -9.5708 0.00193238 1 
1195 1 5.39766 11.6518 -7.52282 0.0085326 1 
1196 1 4.65661 8.93593 -8.03353 0.0166065 1 
1197 1 7.20171 9.5324 -6.82683 0.0242962 1 
1198 1 6.47106 6.79841 -7.26386 0.0799899 1 
1199 1 5.12011 8.34306 -5.32848 0.21417 1 
1200 1 4.35558 5.63927 -5.81041 0.111223 1 
1201 1 7.00167 6.12073 -4.40353 2.05039 5 
1202 1 6.15936 3.53876 -5.15548 0.492045 1 
1203 1 4.72771 5.0821 -3.08324 7.07425 5 
1204 1 4.05974 2.37471 -3.57317 0.164706 1 
1205 1 6.53607 3.22451 -2.52099 8.50309 5 
1206 1 6.05205 0.385154 -2.76512 2.34273 5 
1207 1 4.57932 1.96308 -0.932435 7.03099 5 
1237 1 7.75579 27.0579 -13.5292 0.000239171 1 
1238 1 7.01203 24.3298 -13.998 0.000319046 1 
1239 1 9.5456 24.9422 -12.7958 0.000252627 1 
1240 1 8.80038 22.2132 -13.2652 0.000569381 1 
1241 1 7.46132 23.7445 -11.2514 0.00159236 1 
1242 1 6.71286 21.011 -11.71 0.000876177 1 
1243 1 9.25429 21.6266 -10.5252 0.00365714 1 
1244 1 8.50633 18.8929 -10.9719 0.000866329 1 
1245 1 7.16008 20.4247 -8.9764 0.003136 1 
1246 1 6.41803 17.6908 -9.40317 0.00163866 1 
1247 1 8.96739 18.3096 -8.23069 0.00519709 1 
1248 1 8.21742 15.5794 -8.66468 0.00220335 1 
1249 1 6.88166 17.112 -6.66031 0.0121678 1 
1250 1 6.13882 14.3781 -7.08376 0.00374508 1 
1251 1 8.68788 15.0144 -5.93271 0.0281054 1 
1252 1 7.93222 12.2558 -6.33985 0.0190759 1 
1253 1 6.59585 13.7821 -4.34651 0.0997762 1 
1254 1 5.88498 11.0438 -4.74091 0.148505 1 
1255 1 8.44599 11.675 -3.55934 0.655726 5 
1256 1 7.67863 8.86674 -4.13061 0.521505 1 
1257 1 6.63752 10.3518 -2.00479 3.78326 5 
1258 1 5.50959 7.70214 -2.67664 7.47283 5 
1259 1 7.90942 7.83535 -1.5138 3.88284 5 
1260 1 8.40694 5.01758 -1.47565 6.15036 5 
1261 1 6.12955 5.86223 -0.2753 4.75674 5 
1281 1 9.53293 35.822 -14.9116 0.00014641 1 
1283 1 11.32 33.7064 -14.1717 0.000135673 1 
1284 1 10.5779 30.9809 -14.6264 9.8321e-05 1 
1285 1 9.23683 32.5058 -12.6016 0.000310589 1 
1286 1 8.49695 29.7824 -13.0596 0.000285958 1 
1287 1 11.0271 30.3916 -11.8642 0.000295678 1 
1288 1 10.2869 27.6684 -12.3274 0.000318605 1 
1289 1 8.94783 29.1946 -10.2935 0.00124577 1 
1290 1 8.20731 26.4727 -10.7745 0.001523 1 
1291 1 10.7436 27.0801 -9.5708 0.00193238 1 
1292 1 10.0046 24.3531 -10.0381 0.00387427 1 
1293 1 8.66557 25.8881 -8.03353 0.0166065 1 
1294 1 7.91462 23.1632 -8.52176 0.0106077 1 
1295 1 10.48 23.7505 -7.26386 0.0799899 1 
1296 1 9.71217 21.0473 -7.81193 0.0353099 1 
1297 1 8.36455 22.5914 -5.81041 0.111223 1 
1298 1 7.60813 19.8516 -6.26241 0.0169278 1 
1299 1 10.1683 20.4909 -5.15548 0.492045 1 
1300 1 9.45994 17.7555 -5.49496 0.0682457 1 
1301 1 8.06871 19.3268 -3.57317 0.164706 1 
1302 1 7.40579 16.5828 -3.92896 0.198215 1 
1303 1 10.061 17.3373 -2.76512 2.34273 5 
1304 1 9.09681 14.464 -3.26187 0.630049 1 
1305 1 8.19933 16.1939 -1.20991 4.70054 5 
1306 1 6.93953 13.1854 -1.60136 6.764 5 
1307 1 9.42314 13.7183 -0.675994 8.82376 5 
1308 1 9.50552 10.9306 -0.835038 9.23587 5 
1321 1 11.021 41.2819 -13.998 0.000319046 1 
1322 1 10.2762 38.5514 -14.4584 0.000259 1 
1323 1 12.8093 39.1653 -13.2652 0.000569381 1 
1324 1 12.0639 36.4345 -13.7206 0.000260486 1 
1325 1 10.7218 37.9631 -11.71 0.000876177 1 
1326 1 9.97783 35.2319 -12.1544 0.000425943 1 
1327 1 12.5153 35.8451 -10.9719 0.000866329 1 
1328 1 11.7697 33.1168 -11.4149 0.000422851 1 
1329 1 10.427 34.6429 -9.40317 0.00163866 1 
1330 1 9.68669 31.9164 -9.83975 0.000998104 1 
1331 1 12.2264 32.5315 -8.66468 0.00220335 1 
1332 1 11.481 29.8018 -9.10279 0.00147848 1 
1333 1 10.1478 31.3302 -7.08376 0.00374508 1 
1334 1 9.40663 28.6039 -7.52282 0.0085326 1 
1335 1 11.9412 29.2079 -6.33985 0.0190759 1 
1336 1 11.2107 26.4845 -6.82683 0.0242962 1 
1337 1 9.89395 27.9959 -4.74091 0.148505 1 
1338 1 9.12907 25.2952 -5.32848 0.21417 1 
1339 1 11.6876 25.8189 -4.13061 0.521505 1 
1340 1 11.0106 23.0729 -4.40353 2.05039 5 
1341 1 9.51856 24.6543 -2.67664 7.47283 5 
1342 1 8.73668 22.0342 -3.08324 7.07425 5 
1343 1 12.4159 21.9697 -1.47565 6.15036 5 
1344 1 10.545 20.1766 -2.52099 8.50309 5 
1345 1 10.1385 22.8144 -0.2753 4.75674 5 
1346 1 8.58829 18.9152 -0.932435 7.03099 5 
1351 1 14.5868 47.933 -14.6264 9.8321e-05 1 
1353 1 12.5059 46.7345 -13.0596 0.000285958 1 
1354 1 11.7648 44.01 -13.5292 0.000239171 1 
1355 1 14.2958 44.6205 -12.3274 0.000318605 1 
1356 1 13.5546 41.8943 -12.7958 0.000252627 1 
1357 1 12.2163 43.4248 -10.7745 0.001523 1 
1358 1 11.4703 40.6966 -11.2514 0.00159236 1 
1359 1 14.0136 41.3053 -10.0381 0.00387427 1 
1360 1 13.2633 38.5787 -10.5252 0.00365714 1 
1361 1 11.9236 40.1153 -8.52176 0.0106077 1 
1362 1 11.169 37.3768 -8.9764 0.003136 1 
1363 1 13.7211 37.9994 -7.81193 0.0353099 1 
1364 1 12.9764 35.2618 -8.23069 0.00519709 1 
1365 1 11.6171 36.8038 -6.26241 0.0169278 1 
1366 1 10.8906 34.0641 -6.66031 0.0121678 1 
1367 1 13.4689 34.7076 -5.49496 0.0682457 1 
1368 1 12.6968 31.9665 -5.93271 0.0281054 1 
1369 1 11.4148 33.5349 -3.92896 0.198215 1 
1370 1 10.6048 30.7342 -4.34651 0.0997762 1 
1371 1 13.1058 31.4161 -3.26187 0.630049 1 
1372 1 12.455 28.6271 -3.55934 0.655726 5 
1373 1 10.9485 30.1375 -1.60136 6.764 5 
1374 1 10.6465 27.3039 -2.00479 3.78326 5 
1375 1 13.5145 27.8827 -0.835038 9.23587 5 
1376 1 11.9184 24.7875 -1.5138 3.88284 5 
1377 1 15.329 50.6586 -14.1717 0.000135673 1 
1378 1 13.2458 49.4579 -12.6016 0.000310589 1 
1379 1 15.7787 50.0689 -11.4149 0.000422851 1 
1380 1 15.036 47.3437 -11.8642 0.000295678 1 
1381 1 13.6957 48.8685 -9.83975 0.000998104 1 
1382 1 12.9568 46.1467 -10.2935 0.00124577 1 
1383 1 15.4899 46.7539 -9.10279 0.00147848 1 
1384 1 14.7526 44.0323 -9.5708 0.00193238 1 
1385 1 13.4156 45.556 -7.52282 0.0085326 1 
1386 1 12.6745 42.8402 -8.03353 0.0166065 1 
1387 1 15.2196 43.4366 -6.82683 0.0242962 1 
1388 1 14.489 40.7027 -7.26386 0.0799899 1 
1389 1 13.138 42.2473 -5.32848 0.21417 1 
1390 1 12.3735 39.5435 -5.81041 0.111223 1 
1391 1 15.0196 40.025 -4.40353 2.05039 5 
1392 1 14.1773 37.443 -5.15548 0.492045 1 
1393 1 12.7456 38.9863 -3.08324 7.07425 5 
1394 1 12.0777 36.279 -3.57317 0.164706 1 
1395 1 14.554 37.1288 -2.52099 8.50309 5 
1396 1 14.07 34.2894 -2.76512 2.34273 5 
1397 1 12.5973 35.8673 -0.932435 7.03099 5 
1398 1 12.2083 33.146 -1.20991 4.70054 5 
1399 1 13.4321 30.6704 -0.675994 8.82376 5 
1400 1 16.2353 49.4837 -8.66468 0.00220335 1 
1401 1 14.1568 48.2823 -7.08376 0.00374508 1 
1402 1 16.7058 48.9186 -5.93271 0.0281054 1 
1403 1 15.9501 46.16 -6.33985 0.0190759 1 
1404 1 14.6138 47.6864 -4.34651 0.0997762 1 
1405 1 13.9029 44.948 -4.74091 0.148505 1 
1406 1 16.4639 45.5792 -3.55934 0.655726 5 
1407 1 15.6966 42.771 -4.13061 0.521505 1 
1408 1 14.6554 44.256 -2.00479 3.78326 5 
1409 1 13.5275 41.6064 -2.67664 7.47283 5 
1410 1 15.9273 41.7396 -1.5138 3.88284 5 
1411 1 16.4249 38.9218 -1.47565 6.15036 5 
1412 1 14.1475 39.7665 -0.2753 4.75674 5 
1413 1 15.4237 50.487 -3.92896 0.198215 1 
1414 1 17.1147 48.3682 -3.26187 0.630049 1 
1415 1 16.2173 50.0982 -1.20991 4.70054 5 
1416 1 14.9575 47.0896 -1.60136 6.764 5 
1417 1 17.4411 47.6225 -0.675994 8.82376 5 
1418 1 17.5234 44.8349 -0.835038 9.23587 5 
2025 1 6.87339 6.46148 -14.8165 0.000160753 1 
2027 1 8.66191 4.34394 -14.0757 0.000280885 1 
2028 1 7.91675 1.61468 -14.5346 0.000172589 1 
2029 1 6.58207 3.14239 -12.5267 0.000609241 1 
2030 1 5.83549 0.413008 -12.9779 0.000234859 1 
2031 1 8.37156 1.02284 -11.7776 0.00049295 1 
2080 1 8.35723 11.9137 -13.8872 8.7592e-05 1 
2081 1 7.61585 9.18829 -14.3503 7.65136e-05 1 
2082 1 10.1462 9.79706 -13.145 0.000132488 1 
2083 1 9.40543 7.07139 -13.6095 0.000196556 1 
2084 1 8.06991 8.59848 -11.5911 0.00024861 1 
2085 1 7.32785 5.87348 -12.0633 0.000800733 1 
2086 1 9.86504 6.47946 -10.8494 0.00101559 1 
2087 1 9.11955 3.75337 -11.3225 0.00112195 1 
2088 1 7.79171 5.28565 -9.31786 0.00653259 1 
2089 1 7.04284 2.55202 -9.78164 0.00282275 1 
2090 1 9.58645 3.16012 -8.57508 0.00682226 1 
2091 1 8.83167 0.430329 -9.01803 0.00156785 1 
2092 1 7.52207 1.965 -7.03562 0.0265138 1 
2132 1 11.9257 18.5668 -14.5346 0.000172589 1 
2133 1 11.1805 15.8392 -14.99 8.73718e-05 1 
2134 1 9.84445 17.3651 -12.9779 0.000234859 1 
2135 1 9.09952 14.6386 -13.4298 0.000135561 1 
2136 1 11.6323 15.248 -12.229 0.000300472 1 
2137 1 10.8879 12.5224 -12.6844 0.000176529 1 
2138 1 9.55214 14.0488 -10.6718 0.000606598 1 
2139 1 8.81022 11.3241 -11.1272 0.000293364 1 
2140 1 11.3426 11.9314 -9.92156 0.000841739 1 
2141 1 10.6021 9.20472 -10.3842 0.000597873 1 
2142 1 9.26987 10.733 -8.37257 0.00191393 1 
2143 1 8.53192 8.00192 -8.83325 0.0027067 1 
2144 1 11.0652 8.60437 -7.62703 0.00629002 1 
2145 1 10.3404 5.87782 -8.08633 0.00703347 1 
2146 1 9.01227 7.378 -6.07491 0.0500886 1 
2147 1 8.27074 4.69381 -6.58442 0.0974083 1 
2148 1 10.8417 5.24899 -5.3311 0.294899 1 
2149 1 10.0896 2.54442 -5.83977 0.154344 1 
2150 1 8.85518 3.99291 -3.89689 3.96297 5 
2151 1 8.06171 1.40788 -4.25084 2.03805 5 
2152 1 10.8335 1.79555 -3.0315 11.156 5 
2153 1 6.82643 3.12745 0.14856 7.53307 5 
2185 1 11.6248 26.1404 -14.3503 7.65136e-05 1 
2186 1 10.8824 23.4136 -14.8165 0.000160753 1 
2187 1 13.4144 24.0235 -13.6095 0.000196556 1 
2188 1 12.6709 21.2961 -14.0757 0.000280884 1 
2189 1 11.3368 22.8256 -12.0633 0.000800733 1 
2190 1 10.591 20.0945 -12.5267 0.000609241 1 
2191 1 13.1285 20.7055 -11.3225 0.00112195 1 
2192 1 12.3805 17.975 -11.7776 0.00049295 1 
2193 1 11.0518 19.5041 -9.78164 0.00282275 1 
2194 1 10.3004 16.7756 -10.2237 0.000813892 1 
2195 1 12.8406 17.3825 -9.01803 0.00156785 1 
2196 1 12.0869 14.6586 -9.46556 0.00144648 1 
2197 1 10.7652 16.1938 -7.46709 0.00770323 1 
2198 1 10.0092 13.4621 -7.92055 0.00609971 1 
2199 1 12.5424 14.0805 -6.69239 0.0134735 1 
2200 1 11.8044 11.3389 -7.15634 0.00798787 1 
2201 1 10.469 12.8887 -5.19862 0.0713217 1 
2202 1 9.73559 10.1355 -5.64047 0.0422495 1 
2203 1 12.2587 10.7222 -4.38481 0.247767 1 
2204 1 11.5632 7.97454 -4.8821 0.102822 1 
2205 1 10.1764 9.44975 -2.99594 1.57067 5 
2206 1 9.60952 6.71008 -3.30991 6.15457 5 
2207 1 12.1114 7.26013 -2.12692 7.31909 5 
2208 1 11.1193 4.51312 -2.15769 8.80011 5 
2209 1 8.76036 2.12125 -1.53856 10.9987 5 
2232 1 15.1895 32.7913 -14.99 8.73718e-05 1 
2234 1 13.1085 31.5907 -13.4298 0.000135561 1 
2235 1 12.3662 28.8658 -13.8872 8.7592e-05 1 
2236 1 14.8969 29.4745 -12.6844 0.000176529 1 
2237 1 14.1552 26.7492 -13.145 0.000132488 1 
2238 1 12.8192 28.2762 -11.1272 0.000293364 1 
2239 1 12.0789 25.5506 -11.5911 0.00024861 1 
2240 1 14.611 26.1568 -10.3842 0.000597873 1 
2241 1 13.874 23.4316 -10.8494 0.00101559 1 
2242 1 12.5409 24.954 -8.83325 0.0027067 1 
2243 1 11.8007 22.2378 -9.31786 0.00653259 1 
2244 1 14.3494 22.8299 -8.08633 0.00703347 1 
2245 1 13.5954 20.1122 -8.57508 0.00682226 1 
2246 1 12.2797 21.6459 -6.58442 0.0974083 1 
2247 1 11.531 18.9171 -7.03562 0.0265138 1 
2248 1 14.0986 19.4965 -5.83977 0.154344 1 
2249 1 13.2976 16.7927 -6.24518 0.0578131 1 
2250 1 12.0707 18.36 -4.25084 2.03805 5 
2251 1 11.2601 15.6558 -4.68637 0.180907 1 
2252 1 13.7469 16.2597 -3.31052 3.15067 5 
2253 1 12.9867 13.5251 -3.91379 0.264027 1 
2254 1 11.4903 15.0574 -1.94453 7.96207 5 
2255 1 10.9651 12.3295 -2.55144 6.57077 5 
2256 1 13.1203 12.8347 -0.95306 7.43667 5 
2257 1 12.4589 10.1331 -1.36647 7.371 5 
2258 1 10.3666 8.31644 -0.541623 10.8079 5 
2272 1 14.8913 40.3657 -14.8165 0.000160753 1 
2274 1 16.6798 38.2482 -14.0757 0.000280885 1 
2275 1 15.9347 35.5189 -14.5346 0.000172589 1 
2276 1 14.6 37.0466 -12.5267 0.000609241 1 
2277 1 13.8534 34.3173 -12.9779 0.000234859 1 
2278 1 16.3895 34.9271 -11.7776 0.00049295 1 
2279 1 15.6413 32.2001 -12.229 0.000300472 1 
2280 1 14.3093 33.7277 -10.2237 0.000813892 1 
2281 1 13.5611 31.001 -10.6718 0.000606598 1 
2282 1 16.0959 31.6107 -9.46556 0.00144648 1 
2283 1 15.3516 28.8835 -9.92156 0.000841739 1 
2284 1 14.0181 30.4142 -7.92055 0.00609971 1 
2285 1 13.2788 27.6851 -8.37257 0.00191393 1 
2286 1 15.8134 28.291 -7.15634 0.00798787 1 
2287 1 15.0742 25.5565 -7.62703 0.00629002 1 
2288 1 13.7446 27.0877 -5.64047 0.0422495 1 
2289 1 13.0212 24.3301 -6.07491 0.0500886 1 
2290 1 15.5721 24.9267 -4.8821 0.102822 1 
2291 1 14.8506 22.2011 -5.3311 0.294899 1 
2292 1 13.6185 23.6622 -3.30991 6.15457 5 
2293 1 12.8641 20.945 -3.89689 3.96297 5 
2294 1 15.1283 21.4652 -2.15769 8.80011 5 
2295 1 14.8425 18.7477 -3.0315 11.156 5 
2296 1 12.7693 19.0734 -1.53856 10.9987 5 
2297 1 10.8354 20.0796 0.14856 7.53307 5 
2298 1 11.3349 17.1945 -0.145187 6.79244 5 
2306 1 16.3752 45.8179 -13.8872 8.7592e-05 1 
2307 1 15.6338 43.0925 -14.3503 7.65136e-05 1 
2308 1 18.1641 43.7013 -13.145 0.000132488 1 