ITEM: TIMESTEP
0
ITEM: NUMBER OF ATOMS
22006
ITEM: BOX BOUNDS xy xz yz pp pp ss
-5.4910863976999998e+01 2.1238379175399999e+02 -5.4910863976999998e+01
0.0000000000000000e+00 5.8153005229999998e+01 0.0000000000000000e+00
-1.8508505766954360e+02 2.0436881109740798e+02 0.0000000000000000e+00
ITEM: ATOMS id type x y z c_csym c_cna 
1 1 -2.69078 57.3749 -1.13245 11.0208 5 
2 1 -2.57996 58.1175 -6.85088 0.0141617 1 
3 1 -2.70026 57.7468 -4.05678 0.193625 1 
4 1 -0.324221 56.9953 -5.45257 0.0157009 1 
5 1 -0.476116 56.6331 -2.64406 6.76138 5 
6 1 -2.00331 54.9647 -4.36295 0.212396 1 
7 1 -1.91943 54.6274 -1.3022 8.27705 5 
8 1 -1.55428 51.7665 -1.79714 9.03724 5 
9 1 -0.20167 57.3775 -8.25639 0.00146176 1 
10 1 -1.80063 55.7393 -9.97007 0.00136506 1 
11 1 -1.91175 55.3494 -7.16768 0.00944279 1 
12 1 -1.25764 52.58 -7.46717 0.0234222 1 
13 1 -1.36468 52.1681 -4.65244 0.280704 1 
14 1 -0.657357 49.4721 -4.89065 0.14988 1 
15 1 -0.886926 49.0841 -2.08213 9.75985 5 
16 1 -0.0800032 46.398 -2.34827 9.13072 5 
18 1 -1.68719 56.1333 -12.7861 0.000372123 1 
19 1 -1.02816 53.3695 -13.1152 0.000363666 1 
20 1 -1.14048 52.9745 -10.2861 0.00260895 1 
21 1 -0.481463 50.2182 -10.5997 0.001339 1 
22 1 -0.586325 49.8317 -7.74898 0.0100186 1 
28 1 -0.371824 50.6099 -13.4455 0.000295267 1 
36 1 -4.82987 55.7726 -0.567264 11.6144 5 
37 1 -6.54827 57.2091 -7.04642 0.015334 1 
38 1 -6.62098 56.8129 -4.20664 5.99223 5 
39 1 -4.28079 56.0934 -5.77863 0.136699 1 
40 1 -4.27781 55.6999 -3.08826 6.70153 5 
41 1 -6.00483 54.0598 -4.59 0.207348 1 
42 1 -5.96313 53.7058 -1.85607 6.97462 5 
43 1 -3.62111 52.98 -3.13748 0.41225 1 
44 1 -5.28567 51.0149 -1.91115 7.00019 5 
45 1 -6.3003 58.0032 -12.7179 0.000429314 1 
46 1 -6.42429 57.6065 -9.88711 0.00214167 1 
47 1 -4.05556 56.8704 -11.3482 0.00145555 1 
48 1 -4.17608 56.4787 -8.54197 0.0121356 1 
49 1 -5.76014 54.8433 -10.2302 0.00245018 1 
50 1 -5.88461 54.4526 -7.40211 0.0180333 1 
51 1 -3.51027 53.7131 -8.84591 0.00251385 1 
52 1 -3.618 53.3274 -6.00504 0.034335 1 
53 1 -5.20451 51.6997 -7.70525 0.00639862 1 
54 1 -5.31332 51.3457 -4.82382 0.105707 1 
55 1 -2.95969 50.5691 -6.32274 0.0194332 1 
56 1 -3.09015 50.1867 -3.50426 5.16552 5 
57 1 -4.67761 48.5858 -5.16635 2.00508 5 
58 1 -3.72319 48.3472 -1.43772 12.0111 5 
59 1 -2.41771 47.4432 -3.75422 5.34855 5 
60 1 -4.10571 45.5622 -2.39394 7.68687 5 
61 1 -1.74871 44.3642 -1.52393 12.1652 5 
63 1 -3.93611 57.2661 -14.1682 0.00028734 1 
65 1 -5.63914 55.2383 -13.0595 0.000435453 1 
66 1 -3.27585 54.5013 -14.505 0.000156319 1 
67 1 -3.39196 54.1058 -11.6754 0.000521759 1 
68 1 -4.97705 52.4763 -13.3945 0.000217763 1 
69 1 -5.09272 52.0842 -10.555 0.00092141 1 
70 1 -2.73069 51.3454 -12.0024 0.000470716 1 
71 1 -2.84503 50.9531 -9.16304 0.00261377 1 
72 1 -4.42902 49.3271 -10.8844 0.00105698 1 
73 1 -4.53863 48.9439 -8.02514 0.00760442 1 
74 1 -2.18399 48.2015 -9.4789 0.00281773 1 
75 1 -2.29057 47.8294 -6.60889 0.0174423 1 
76 1 -3.88265 46.1958 -8.35269 0.0157405 1 
77 1 -4.01443 45.8348 -5.45522 0.148956 1 
78 1 -1.64189 45.0788 -6.98685 0.0110787 1 
79 1 -1.73942 44.7372 -4.17074 0.27044 1 
80 1 -3.35708 43.076 -5.91049 0.0330651 1 
81 1 -3.43622 42.6662 -3.13422 2.81704 5 
82 1 -1.05408 41.9656 -4.63572 0.317966 1 
83 1 -1.25936 41.4724 -2.00364 9.69603 5 
84 1 -2.85461 39.8905 -3.5313 2.93784 5 
85 1 -0.581997 38.6892 -2.15834 3.99694 5 
86 1 -2.27642 37.0193 -0.722676 10.1904 5 
95 1 -2.61707 51.7395 -14.8406 0.000127628 1 
97 1 -4.31713 49.717 -13.7311 0.000229172 1 
99 1 -2.07286 48.589 -12.3336 0.000567522 1 
100 1 -3.66131 46.9598 -14.0737 0.000313812 1 
101 1 -3.77286 46.573 -11.2222 0.0019173 1 
102 1 -1.41956 45.8336 -12.6831 0.000240859 1 
103 1 -1.53116 45.4503 -9.83399 0.00118085 1 
104 1 -3.12343 43.8175 -11.584 0.000313746 1 
105 1 -3.23971 43.4402 -8.74176 0.00264983 1 
106 1 -0.880981 42.6923 -10.2058 0.00135064 1 
107 1 -0.989289 42.317 -7.38948 0.0208352 1 
108 1 -2.59469 40.6756 -9.11326 0.00147041 1 
109 1 -2.71961 40.3036 -6.29618 0.0221883 1 
110 1 -0.347017 39.5397 -7.74145 0.00219814 1 
111 1 -0.457852 39.1643 -4.92915 0.0339443 1 
112 1 -2.05625 37.5208 -6.65008 0.00625651 1 
113 1 -2.15863 37.1247 -3.83271 0.242245 1 
114 1 -1.4816 34.3053 -4.17164 0.176562 1 
115 1 -1.25364 33.8201 -1.16655 7.17063 5 
116 1 -0.875953 30.9795 -1.38701 9.33147 5 
134 1 -3.00894 44.2025 -14.4278 8.31356e-05 1 
136 1 -0.768084 43.0756 -13.0434 0.000123938 1 
137 1 -2.35744 41.4432 -14.7865 4.46884e-05 1 
138 1 -2.47471 41.0574 -11.947 0.00016887 1 
139 1 -0.233082 39.9266 -10.5694 0.000271998 1 
140 1 -1.82362 38.2945 -12.3103 8.62839e-05 1 
141 1 -1.94231 37.9073 -9.47663 0.000437293 1 
142 1 -1.29012 35.1383 -9.83802 0.000414419 1 
143 1 -1.40557 34.7379 -7.00372 0.00553863 1 
144 1 -0.750016 31.962 -7.34489 0.0135471 1 
145 1 -0.845184 31.5063 -4.47644 0.146386 1 
146 1 -0.202477 28.7768 -4.8836 2.04912 5 
147 1 0.871741 28.2453 -1.26806 11.1848 5 
173 1 -1.17102 35.5304 -12.674 7.70599e-05 1 
174 1 -0.516738 32.7658 -13.0384 0.000141366 1 
175 1 -0.635769 32.3713 -10.1978 0.00126141 1 
318 1 -11.1827 57.9583 -1.5475 11.0775 5 
319 1 -8.57339 57.5106 -2.33183 10.2946 5 
320 1 -10.4277 55.3355 -1.11068 10.8139 5 
321 1 -7.61432 55.5447 -0.402952 7.34555 5 
322 1 46.1319 0.183751 -8.4043 0.00844163 1 
323 1 -8.88792 57.9378 -5.5319 0.363519 1 
324 1 -10.4671 56.3149 -7.25695 0.0911077 1 
325 1 -10.5079 55.9962 -4.20639 1.61789 5 
326 1 -8.25591 55.1975 -5.89397 0.0821122 1 
327 1 -8.32726 54.7383 -3.00328 4.93503 5 
328 1 -9.92724 53.1832 -4.7886 0.203113 1 
329 1 -10.2931 52.6544 -2.02811 8.70756 5 
330 1 -7.75089 52.0072 -3.28125 2.82545 5 
331 1 -8.13787 52.7619 -0.572416 7.44073 5 
332 1 -9.12287 50.0785 -1.21557 9.16706 5 
333 1 -6.51961 48.7663 -1.16847 8.09167 5 
334 1 -10.2372 57.1093 -12.983 0.000611258 1 
335 1 -10.3524 56.7116 -10.1328 0.00696282 1 
336 1 -8.00079 55.9761 -11.603 0.000697079 1 
337 1 -8.12168 55.5828 -8.75809 0.00309164 1 
338 1 -9.69559 53.9545 -10.4893 0.000728238 1 
339 1 -9.81018 53.5685 -7.63944 0.00554824 1 
340 1 -7.45582 52.8236 -9.09908 0.00260905 1 
341 1 -7.5684 52.4419 -6.23981 0.0320134 1 
342 1 -9.14675 50.8171 -7.98324 0.00871388 1 
343 1 -9.25297 50.4438 -5.1282 7.27893 5 
344 1 -6.89727 49.7046 -6.60782 0.026163 1 
345 1 -7.02965 49.4132 -3.73166 6.47732 5 
346 1 -8.57038 47.6938 -5.4667 0.122357 1 
347 1 -8.72922 47.4823 -2.62241 3.33632 5 
348 1 -6.30202 46.6643 -3.96543 5.13774 5 
349 1 -6.8606 46.0189 -1.26904 11.1502 5 
350 1 -8.10832 44.6155 -3.29864 3.55075 5 
351 1 -8.06185 43.5376 -0.945407 11.5871 5 
352 1 -5.52275 43.1879 -1.60903 10.413 5 
356 1 -7.88107 56.3717 -14.4389 0.000149528 1 
358 1 -9.57979 54.3464 -13.3307 0.000130097 1 
359 1 -7.22131 53.608 -14.7822 0.00011869 1 
360 1 -7.33836 53.2143 -11.9446 0.000513125 1 
361 1 -8.92057 51.5854 -13.6751 0.000121665 1 
362 1 -9.03434 51.1967 -10.834 0.000816143 1 
363 1 -6.67531 50.456 -12.2848 0.000277866 1 
364 1 -6.78674 50.0712 -9.44323 0.00170057 1 
365 1 -8.37385 48.4394 -11.1801 0.000660258 1 
366 1 -8.48167 48.0607 -8.33633 0.00663897 1 
367 1 -6.12405 47.3171 -9.77698 0.00301192 1 
368 1 -6.23228 46.9517 -6.9227 0.0403954 1 
369 1 -7.83191 45.3074 -8.7057 0.0156953 1 
370 1 -7.9266 44.9669 -5.93005 0.298458 1 
371 1 -5.58483 44.1894 -7.28164 0.0366933 1 
372 1 -5.67738 43.8379 -4.41067 0.559347 1 
373 1 -7.32026 42.1901 -6.12286 0.165571 1 
374 1 -7.53336 41.7881 -3.19641 5.48044 5 
375 1 -5.12322 41.0548 -4.82041 0.128557 1 
376 1 -5.29448 40.4299 -2.03058 10.0796 5 
377 1 -6.86616 39.0066 -3.70645 1.12756 5 
378 1 -4.48667 37.8127 -2.52124 10.9848 5 
379 1 -6.07797 35.9174 -1.03239 8.10175 5 
380 1 -3.59808 34.6039 -0.242232 10.1773 5 
393 1 -8.26191 48.826 -14.0198 0.000121143 1 
395 1 -6.01623 47.6989 -12.6249 0.000437385 1 
396 1 -7.60627 46.0677 -14.3666 9.44868e-05 1 
397 1 -7.71971 45.6832 -11.5288 0.000910231 1 
398 1 -5.36363 44.942 -12.973 0.000363325 1 
399 1 -5.47556 44.5611 -10.1276 0.00333421 1 
400 1 -7.07035 42.9245 -11.8694 0.00108019 1 
401 1 -7.18975 42.5456 -9.01404 0.012493 1 
402 1 -4.83403 41.8017 -10.4854 0.00064122 1 
403 1 -4.96386 41.4266 -7.64454 0.0073478 1 
404 1 -6.54617 39.785 -9.38693 0.00127873 1 
405 1 -6.68615 39.4074 -6.54315 0.0189368 1 
406 1 -4.31036 38.6571 -8.02689 0.00584755 1 
407 1 -4.4483 38.2723 -5.24541 0.095323 1 
408 1 -6.02848 36.6333 -6.90791 0.0167824 1 
409 1 -6.15174 36.2439 -4.02587 0.314455 1 
410 1 -3.76936 35.5037 -5.57637 0.0440118 1 
411 1 -3.77899 35.1103 -2.81579 0.857896 1 
412 1 -5.4548 33.4825 -4.48538 0.0464771 1 
413 1 -5.59838 33.1602 -1.72188 1.78371 5 
414 1 -3.14711 32.3383 -3.06978 0.507291 1 
415 1 -3.57806 31.8666 -0.461589 12.6689 5 
416 1 -4.99066 30.2975 -2.08342 2.2502 5 
417 1 -1.90297 28.3918 -1.01975 10.3712 5 
437 1 -6.95338 43.3091 -14.7151 0.000158912 1 
439 1 -4.71416 42.1838 -13.3282 0.000124508 1 
441 1 -6.42131 40.1656 -12.2297 0.000163865 1 
442 1 -4.06283 39.4236 -13.6895 5.8681e-05 1 
443 1 -4.18419 39.039 -10.8523 0.000364336 1 
444 1 -5.76898 37.4043 -12.5928 0.000127862 1 
445 1 -5.89441 37.0201 -9.75259 0.000981157 1 
446 1 -3.53024 36.2748 -11.2159 0.000197551 1 
447 1 -3.65132 35.8881 -8.38516 0.00205407 1 
448 1 -5.23494 34.2561 -10.1231 0.000394945 1 
449 1 -5.35776 33.8705 -7.29343 0.0040612 1 
450 1 -2.99033 33.1174 -8.74417 0.00154095 1 
451 1 -3.09445 32.7172 -5.9124 0.0141867 1 
452 1 -4.6933 31.1025 -7.66273 0.00167915 1 
453 1 -4.79736 30.7144 -4.84474 0.0314123 1 
454 1 -2.45194 29.9467 -6.27447 0.00969654 1 
455 1 -2.53659 29.5695 -3.4198 5.14525 5 
456 1 -4.13823 27.9336 -5.18719 0.0603952 1 
457 1 -4.25295 27.5619 -2.36493 2.83044 5 
458 1 -1.86196 26.7958 -3.65631 4.93997 5 
459 1 -2.66812 25.7469 -0.859938 10.2284 5 
460 1 -3.71044 24.6816 -3.00014 3.28684 5 
461 1 -1.36905 23.5459 -1.72413 10.0681 5 
489 1 -3.40952 36.6616 -14.0526 4.58967e-05 1 
491 1 -5.11307 34.6416 -12.959 7.30601e-05 1 
492 1 -2.75442 33.8981 -14.4171 3.71444e-05 1 
493 1 -2.87375 33.5095 -11.5802 0.000171004 1 
494 1 -4.45586 31.8772 -13.3262 5.68554e-05 1 
495 1 -4.57507 31.4903 -10.492 0.000266822 1 
496 1 -2.21671 30.7445 -11.947 0.000172226 1 
497 1 -2.33257 30.3515 -9.10933 0.00115281 1 
498 1 -3.91726 28.7247 -10.8618 0.000424211 1 
499 1 -4.03563 28.3341 -8.0302 0.00341044 1 
500 1 -1.67607 27.5884 -9.47905 0.00288417 1 
501 1 -1.79124 27.1858 -6.63095 0.0438919 1 
502 1 -3.38435 25.5721 -8.42878 0.00898776 1 
503 1 -3.50506 25.2041 -5.6496 0.17693 1 
504 1 -1.12819 24.4346 -7.07697 0.037227 1 
505 1 -1.24971 24.0515 -4.3478 0.493738 1 
506 1 -2.86934 22.4137 -5.99985 0.0282882 1 
507 1 -3.03628 21.9456 -3.21024 0.293939 1 
508 1 -0.616946 21.2734 -4.71444 0.230622 1 
509 1 -0.633062 20.897 -2.06189 6.49399 5 
510 1 -2.40054 19.2227 -3.42821 1.10759 5 
511 1 -1.79274 16.0214 -1.08867 6.77012 5 
547 1 -2.09822 31.1335 -14.7828 3.94922e-05 1 
549 1 -3.79863 29.1116 -13.694 7.60817e-05 1 
551 1 -1.55947 27.9788 -12.3162 0.000279134 1 
552 1 -3.14158 26.344 -14.062 0.00017895 1 
553 1 -3.26178 25.9582 -11.2387 0.00109304 1 
554 1 -0.901192 25.2108 -12.6871 0.000512907 1 
555 1 -1.01903 24.8238 -9.87042 0.00369962 1 
556 1 -2.6051 23.1854 -11.6034 0.000837926 1 
557 1 -2.7314 22.7974 -8.79531 0.00364182 1 
558 1 -0.36205 22.0494 -10.2297 0.00336848 1 
559 1 -0.485619 21.6598 -7.44214 0.0358896 1 
560 1 -2.06832 20.0199 -9.1267 0.00314969 1 
561 1 -2.20094 19.6246 -6.29864 0.0346207 1 
562 1 -1.51955 16.8728 -6.62961 0.0082719 1 
563 1 -1.68973 16.4855 -3.81997 0.128452 1 
564 1 -0.977978 13.7569 -4.09565 0.101163 1 
565 1 -0.88874 13.4138 -1.25829 8.857 5 
566 1 -0.244348 10.5708 -1.45572 5.95913 5 
611 1 -2.48387 23.5735 -14.4231 0.000214457 1 
612 1 -0.242679 22.4397 -13.0435 0.000536328 1 
613 1 -1.82525 20.803 -14.7734 0.000122269 1 
614 1 -1.94497 20.4123 -11.9483 0.000430656 1 
615 1 -1.28431 17.6451 -12.2845 0.000152417 1 
616 1 -1.40015 17.2579 -9.45182 0.000809445 1 
617 1 -0.743467 14.4948 -9.78273 0.000184065 1 
618 1 -0.858464 14.1111 -6.94206 0.00222797 1 
619 1 -0.199086 11.351 -7.27108 0.00156886 1 
620 1 -0.310772 10.9746 -4.41914 0.0612259 1 
670 1 -0.62672 14.8814 -12.6232 7.8951e-05 1 
1123 1 -15.1334 57.8072 -4.55176 0.635738 1 
1124 1 -15.3796 57.2442 -1.92969 11.1938 5 
1125 1 -12.9605 56.6031 -3.0816 0.787134 5 
1126 1 -14.7109 54.5616 -1.99614 6.15018 5 
1127 1 -12.5645 53.6175 -0.674694 10.5656 5 
1128 1 39.8674 0.0399488 -7.30283 0.043577 1 
1129 1 -12.7005 57.4496 -8.71318 0.00791038 1 
1130 1 -12.8054 57.0457 -5.88975 0.121079 1 
1131 1 -14.4183 55.423 -7.6094 0.00672656 1 
1132 1 -14.5758 55.0199 -4.78903 0.0483906 1 
1133 1 -12.1524 54.3203 -6.19029 0.103571 1 
1134 1 -12.3151 53.9265 -3.43484 0.886143 1 
1135 1 -13.8936 52.2628 -5.09689 0.0352273 1 
1136 1 -14.0711 51.8561 -2.28844 7.02235 5 
1137 1 -11.6296 51.1212 -3.75917 1.76061 5 
1138 1 -11.9734 50.743 -0.764004 11.4031 5 
1139 1 -13.277 49.1985 -2.77924 5.69791 5 
1140 1 -11.0939 47.9942 -1.38256 12.1983 5 
1141 1 42.4348 0.0916849 -14.3703 0.000132435 1 
1142 1 -12.5891 57.848 -11.5397 0.00102678 1 
1143 1 -14.1775 56.2175 -13.269 0.000123435 1 
1144 1 -14.2947 55.821 -10.4387 0.00049231 1 
1145 1 -11.9355 55.085 -11.8794 0.000462172 1 
1146 1 -12.0514 54.6919 -9.03994 0.0045035 1 
1147 1 -13.6408 53.0618 -10.7762 0.000456204 1 
1148 1 -13.7583 52.6763 -7.93418 0.00686182 1 
1149 1 -11.3949 51.9379 -9.39092 0.0016742 1 
1150 1 -11.5181 51.5581 -6.56879 0.0197337 1 
1151 1 -13.1084 49.9176 -8.30512 0.00569464 1 
1152 1 -13.2417 49.5269 -5.51497 0.0819547 1 
1153 1 -10.8405 48.8055 -6.93557 0.0293218 1 
1154 1 -10.922 48.4479 -4.1539 1.70942 5 
1155 1 -12.5637 46.7969 -5.84096 0.0402716 1 
1156 1 -12.6122 46.3555 -3.11321 5.10135 5 
1157 1 -10.3153 45.6775 -4.47498 0.194878 1 
1158 1 -10.3313 45.2137 -1.58281 9.02856 5 
1159 1 -12.0666 43.6726 -3.27072 0.838304 5 
1160 1 -10.2342 42.2945 -1.8744 10.4679 5 
1164 1 -11.8203 55.4791 -14.7161 4.31943e-05 1 
1166 1 -13.5224 53.4545 -13.6128 6.06962e-05 1 
1168 1 -11.2797 52.3248 -12.2262 0.00016391 1 
1169 1 -12.8662 50.6932 -13.9604 5.09482e-05 1 
1170 1 -12.9856 50.3041 -11.1273 0.000471411 1 
1171 1 -10.6217 49.5656 -12.5738 0.000253669 1 
1172 1 -10.7347 49.1823 -9.74376 0.00289661 1 
1173 1 -12.3301 47.5455 -11.4739 0.000401842 1 
1174 1 -12.4536 47.162 -8.64876 0.00380709 1 
1175 1 -10.0829 46.4248 -10.0885 0.00150332 1 
1176 1 -10.2002 46.0531 -7.27044 0.0191873 1 
1177 1 -11.7956 44.4033 -8.97906 0.00164192 1 
1178 1 -11.9289 44.0263 -6.13357 0.0220707 1 
1179 1 -9.55141 43.2898 -7.59036 0.0221201 1 
1180 1 -9.72201 42.8816 -4.77096 0.361556 1 
1181 1 -11.2818 41.2672 -6.51285 0.0242406 1 
1182 1 -11.4755 40.8342 -3.74382 5.37657 5 
1183 1 -9.04497 40.1513 -5.11286 0.10202 1 
1184 1 -9.28789 39.6879 -2.2761 9.95666 5 
1185 1 -10.7791 38.0979 -3.96979 5.36379 5 
1186 1 -8.45977 37.0083 -2.542 3.83562 5 
1187 1 -10.2621 34.9041 -1.54092 5.24567 5 
1188 1 -7.95777 33.6416 -0.419244 10.0794 5 
1202 1 -12.2099 47.9328 -14.3077 6.17527e-05 1 
1204 1 -9.96595 46.8069 -12.9198 0.000172308 1 
1205 1 -11.5537 45.1731 -14.6548 5.46766e-05 1 
1206 1 -11.6737 44.7866 -11.8168 0.000186324 1 
1207 1 -9.31147 44.0481 -13.2652 0.000151783 1 
1208 1 -9.43004 43.6644 -10.4267 0.00122795 1 
1209 1 -11.0195 42.029 -12.1647 0.000137345 1 
1210 1 -11.1445 41.6473 -9.32814 0.00134752 1 
1211 1 -8.77937 40.9078 -10.773 0.000832992 1 
1212 1 -8.90147 40.5338 -7.93205 0.0109585 1 
1213 1 -10.4923 38.8897 -9.6704 0.00114306 1 
1214 1 -10.6268 38.5065 -6.8229 0.00852175 1 
1215 1 -8.25918 37.7671 -8.28903 0.00101519 1 
1216 1 -8.39773 37.3773 -5.44733 0.0269793 1 
1217 1 -9.97808 35.7549 -7.18388 0.00897489 1 
1218 1 -10.1462 35.4076 -4.30366 0.171936 1 
1219 1 -7.73923 34.6343 -5.83104 0.0189472 1 
1220 1 -7.84904 34.267 -3.06575 0.313648 1 
1221 1 -9.45745 32.6317 -4.76709 0.0311428 1 
1222 1 -9.64657 32.2075 -1.99942 2.61923 5 
1223 1 -7.22165 31.4738 -3.45812 0.081225 1 
1224 1 -7.35003 30.9949 -0.768036 10.1377 5 
1225 1 -8.97228 29.3951 -2.23727 0.495998 1 
1226 1 -6.59869 28.3076 -1.05508 5.30271 5 
1249 1 -8.65874 41.29 -13.6158 0.000151232 1 
1251 1 -10.3655 39.2709 -12.5164 0.000234792 1 
1252 1 -8.00603 38.5306 -13.9743 8.61835e-05 1 
1253 1 -8.12967 38.1477 -11.1318 0.000220496 1 
1254 1 -9.71072 36.5115 -12.8788 0.00016084 1 
1255 1 -9.83807 36.1308 -10.035 0.000875713 1 
1256 1 -7.47426 35.3863 -11.4994 0.000183126 1 
1257 1 -7.60252 35.0059 -8.66148 0.00108475 1 
1258 1 -9.17868 33.3686 -10.4122 0.000249712 1 
1259 1 -9.3095 32.9929 -7.58177 0.00221611 1 
1260 1 -6.93976 32.2393 -9.03897 0.000490121 1 
1261 1 -7.06788 31.8572 -6.22233 0.00854917 1 
1262 1 -8.64657 30.221 -7.95488 0.00125569 1 
1263 1 -8.79476 29.8364 -5.12114 0.0328522 1 
1264 1 -6.39983 29.0867 -6.59181 0.00961757 1 
1265 1 -6.55828 28.6973 -3.81979 0.12229 1 
1266 1 -8.12034 27.0639 -5.5045 0.0100507 1 
1267 1 -8.26435 26.6707 -2.64699 5.54841 5 
1268 1 -5.89806 25.9442 -4.17879 0.120267 1 
1269 1 -5.92563 25.5636 -1.3297 7.62767 5 
1270 1 -7.57411 23.8888 -3.03979 4.88084 5 
1271 1 -5.35926 22.7957 -1.72223 8.53875 5 
1301 1 -7.35113 35.7695 -14.3384 5.59074e-05 1 
1303 1 -9.05399 33.7495 -13.2477 6.18854e-05 1 
1304 1 -6.69457 33.0064 -14.7049 3.38662e-05 1 
1305 1 -6.81583 32.6223 -11.8699 9.7383e-05 1 
1306 1 -8.3966 30.9851 -13.6167 4.67015e-05 1 
1307 1 -8.51962 30.6027 -10.7848 9.33309e-05 1 
1308 1 -6.15782 29.8567 -12.2398 9.16552e-05 1 
1309 1 -6.27968 29.472 -9.41091 0.000418098 1 
1310 1 -7.86197 27.8351 -11.1574 0.000199366 1 
1311 1 -7.98918 27.4519 -8.33154 0.0012751 1 
1312 1 -5.62549 26.705 -9.78813 0.00124025 1 
1313 1 -5.75615 26.3217 -6.97584 0.0115177 1 
1314 1 -7.33329 24.678 -8.70298 0.00213751 1 
1315 1 -7.46482 24.2885 -5.87616 0.0112854 1 
1316 1 -5.10257 23.546 -7.35536 0.0122189 1 
1317 1 -5.26059 23.1239 -4.58306 0.122667 1 
1318 1 -6.81025 21.5039 -6.21958 0.0189754 1 
1319 1 -6.94039 21.1417 -3.35147 7.14137 5 
1320 1 -4.57273 20.3741 -4.87053 0.0658676 1 
1321 1 -4.771 19.9888 -1.89645 9.25872 5 
1322 1 -6.2011 18.3911 -3.73308 7.01008 5 
1323 1 -4.10126 17.2365 -2.28498 8.67256 5 
1361 1 -7.73917 28.2185 -13.9854 7.10352e-05 1 
1363 1 -5.50117 27.0894 -12.6105 0.00022316 1 
1364 1 -7.08155 25.449 -14.3508 0.000120033 1 
1365 1 -7.20449 25.0637 -11.5262 0.000411833 1 
1366 1 -4.84416 24.3183 -12.9763 0.000348843 1 
1367 1 -4.97018 23.9316 -10.1592 0.00167777 1 
1368 1 -6.54515 22.2888 -11.8837 0.000339266 1 
1369 1 -6.67147 21.8991 -9.05743 0.00188194 1 
1370 1 -4.30867 21.1559 -10.5082 0.000700603 1 
1371 1 -4.4369 20.7669 -7.68875 0.00322693 1 
1372 1 -6.00441 19.1274 -9.39953 0.000616782 1 
1373 1 -6.12153 18.7412 -6.56299 0.00679645 1 
1374 1 -3.76565 17.997 -8.01831 0.00196174 1 
1375 1 -3.8828 17.6081 -5.19629 0.0452335 1 
1376 1 -5.45157 15.9749 -6.88515 0.00411653 1 
1377 1 -5.5461 15.5975 -4.04038 7.42322 5 
1378 1 -3.21571 14.8421 -5.48511 0.0314737 1 
1379 1 -3.41181 14.3768 -2.56005 7.33311 5 
1380 1 -4.90471 12.8389 -4.30727 0.564369 5 
1381 1 -5.02158 12.644 -0.755226 11.5284 5 
1382 1 -2.65593 11.7314 -2.98449 0.945677 5 
1383 1 -2.49767 11.4961 -0.346225 10.9004 5 
1384 1 -4.469 9.80798 -1.76483 2.97629 5 
1385 1 -2.30744 8.66011 -0.707752 12.4281 5 
1431 1 -6.42325 22.6773 -14.7089 0.000110529 1 
1433 1 -4.18518 21.5456 -13.3301 0.00021471 1 
1435 1 -5.88382 19.5165 -12.23 0.000179754 1 
1436 1 -3.52504 18.7754 -13.6744 0.000116141 1 
1437 1 -3.64459 18.3851 -10.8454 0.000435722 1 
1438 1 -5.22237 16.7483 -12.5698 0.000135813 1 
1439 1 -5.33898 16.3598 -9.73214 0.000601896 1 
1440 1 -2.98271 15.6201 -11.1771 0.000259207 1 
1441 1 -3.10101 15.232 -8.33506 0.00200976 1 
1442 1 -4.67617 13.5974 -10.0626 0.00145932 1 
1443 1 -4.78796 13.2147 -7.19661 0.015435 1 
1444 1 -2.43997 12.4733 -8.67178 0.00117755 1 
1445 1 -2.55026 12.0944 -5.82753 0.011285 1 
1446 1 -4.12934 10.4574 -7.55124 0.00574521 1 
1447 1 -4.25036 10.0927 -4.66469 0.0854453 1 
1448 1 -1.89376 9.33691 -6.16982 0.0107297 1 
1449 1 -1.96143 8.99202 -3.35392 0.328426 1 
1450 1 -3.57531 7.33063 -5.05875 0.0345941 1 
1451 1 -3.7623 6.97572 -2.24808 3.12585 5 
1452 1 -1.30461 6.22748 -3.68806 1.31808 5 
1453 1 -1.21978 5.69862 -1.0174 9.41042 5 
1454 1 -3.02038 4.23525 -2.63844 1.04016 5 
1455 1 -1.16037 2.82029 -1.25337 12.2922 5 
1510 1 -2.86573 16.0091 -14.015 6.86371e-05 1 
1512 1 -4.56202 13.9839 -12.9092 0.000174446 1 
1513 1 -2.20796 13.2453 -14.3589 5.14161e-05 1 
1514 1 -2.32397 12.8579 -11.5171 0.000143448 1 
1515 1 -3.9039 11.221 -13.2554 9.92377e-05 1 
1516 1 -4.01681 10.8361 -10.4092 0.000557234 1 
1517 1 -1.66629 10.0962 -11.864 0.000118239 1 
1518 1 -1.77993 9.71362 -9.01662 0.000486153 1 
1519 1 -3.35973 8.07427 -10.7635 0.000173159 1 
1520 1 -3.47103 7.69692 -7.91705 0.00128209 1 
1521 1 -1.12103 6.95102 -9.37425 0.000822737 1 
1522 1 -1.23677 6.5755 -6.53484 0.0111331 1 
1523 1 -2.81137 4.9293 -8.28457 0.00111449 1 
1524 1 -2.90073 4.55162 -5.44704 0.0267606 1 
1525 1 -0.567691 3.80425 -6.8863 0.0157302 1 
1526 1 -0.622636 3.47432 -3.97022 1.42942 5 
1527 1 210.147 1.8028 -5.83408 0.0613171 1 
1528 1 210.022 1.34929 -3.13161 6.68856 5 
1590 1 -1.55129 10.4827 -14.7075 4.77075e-05 1 
1592 1 -3.24752 8.45848 -13.6068 5.47014e-05 1 
1594 1 -1.00968 7.33413 -12.2184 0.000110827 1 
1595 1 -2.59234 5.69561 -13.9628 4.10509e-05 1 
1596 1 -2.70437 5.31079 -11.1226 0.000140392 1 
1597 1 -0.354479 4.57101 -12.5772 0.000177444 1 
1598 1 -0.464248 4.18713 -9.73329 0.00112115 1 
1599 1 -2.05085 2.54681 -11.4853 0.00020771 1 
1600 1 210.227 2.1638 -8.65309 0.00239374 1 
1669 1 -1.93795 2.93202 -14.3228 4.0071e-05 1 
2661 1 -19.1885 56.852 -4.84399 0.303603 1 
2662 1 -19.1949 56.5344 -1.99604 9.16837 5 
2663 1 -16.9674 55.6485 -3.39012 0.74789 1 
2664 1 -18.6525 53.7399 -2.0828 8.5661 5 
2665 1 -16.4339 52.4642 -0.772339 12.5848 5 
2666 1 -18.9022 57.696 -10.3881 0.00274069 1 
2667 1 -19.0299 57.2992 -7.59026 0.0296983 1 
2668 1 -16.6565 56.5576 -9.00429 0.00243741 1 
2669 1 -16.7902 56.1703 -6.18079 0.0582096 1 
2670 1 -18.3745 54.5293 -7.88725 0.00416391 1 
2671 1 -18.5116 54.0959 -5.06538 0.0657879 1 
2672 1 -16.1329 53.3939 -6.50277 0.00857581 1 
2673 1 -16.311 52.9404 -3.66805 0.0806853 1 
2674 1 -17.8331 51.3478 -5.3852 0.023616 1 
2675 1 -18.0382 50.9202 -2.47543 7.68956 5 
2676 1 -15.629 50.2169 -3.99873 0.155657 1 
2677 1 -15.521 49.6721 -1.12546 12.9378 5 
2678 1 -17.2822 48.1904 -2.85212 7.29503 5 
2679 1 -13.8403 47.346 -0.998959 12.6855 5 
2680 1 -16.3714 46.4572 -0.71141 8.05343 5 
2681 1 -18.7789 58.0929 -13.2061 0.000391399 1 
2682 1 -16.4188 57.3523 -14.6527 9.87342e-05 1 
2683 1 -16.5369 56.9567 -11.826 0.000389965 1 
2684 1 -18.1235 55.3257 -13.5512 0.00011985 1 
2685 1 -18.2469 54.9291 -10.7195 0.000507965 1 
2686 1 -15.8832 54.1919 -12.166 0.000143622 1 
2687 1 -16.0058 53.7951 -9.33333 0.000803075 1 
2688 1 -17.5902 52.1673 -11.0598 0.000230377 1 
2689 1 -17.717 51.7689 -8.22177 0.00147487 1 
2690 1 -15.3503 51.0404 -9.67464 0.000776323 1 
2691 1 -15.4789 50.644 -6.84328 0.00679464 1 
2692 1 -17.0615 49.0131 -8.56436 0.00112471 1 
2693 1 -17.1852 48.6066 -5.72535 0.0128127 1 
2694 1 -14.8257 47.8867 -7.17737 0.0134603 1 
2695 1 -14.9356 47.4938 -4.30589 1.87542 5 
2696 1 -16.5324 45.8756 -6.079 0.0240955 1 
2697 1 -16.6681 45.4696 -3.25371 7.96465 5 
2698 1 -14.2941 44.7744 -4.69913 0.061442 1 
2699 1 -14.3701 44.5057 -1.78301 9.52397 5 
2700 1 -15.9574 42.7582 -3.50315 5.04683 5 
2701 1 -13.5853 41.6784 -2.072 9.53726 5 
2702 1 -15.0483 39.4174 -1.3946 9.72162 5 
2708 1 -15.7634 54.5864 -14.9992 4.00484e-05 1 
2710 1 -17.467 52.5615 -13.8963 5.12162e-05 1 
2712 1 -15.2276 51.431 -12.5103 7.68141e-05 1 
2713 1 -16.8105 49.799 -14.243 3.59381e-05 1 
2714 1 -16.9337 49.4073 -11.4044 0.000163838 1 
2715 1 -14.572 48.6704 -12.8572 9.30736e-05 1 
2716 1 -14.6972 48.2808 -10.0205 0.000697962 1 
2717 1 -16.278 46.6473 -11.7508 0.000196877 1 
2718 1 -16.4048 46.258 -8.91104 0.0018652 1 
2719 1 -14.0397 45.5226 -10.3669 0.000494399 1 
2720 1 -14.1636 45.1389 -7.53094 0.00323465 1 
2721 1 -15.7515 43.5029 -9.24703 0.00243083 1 
2722 1 -15.8785 43.123 -6.38629 0.0184028 1 
2723 1 -13.5141 42.3892 -7.87288 0.00203638 1 
2724 1 -13.6452 42.0238 -5.03329 0.0806353 1 
2725 1 -15.2372 40.3845 -6.78096 0.0491835 1 
2726 1 -15.3265 40.079 -3.95141 6.5929 5 
2727 1 -13.016 39.2426 -5.38466 1.63321 5 
2728 1 -12.242 38.9915 -1.71833 10.283 5 
2729 1 -14.6777 37.3093 -4.15787 5.71557 5 
2730 1 -15.449 36.6178 -1.44614 10.3875 5 
2731 1 -12.5242 36.2414 -2.62335 7.23492 5 
2732 1 -14.2895 34.0411 -2.0384 10.6316 5 
2746 1 -16.1544 47.0374 -14.5905 4.44144e-05 1 
2748 1 -13.9157 45.9105 -13.2041 0.000100559 1 
2749 1 -15.4982 44.2772 -14.9389 8.24839e-05 1 
2750 1 -15.6225 43.8889 -12.0958 0.000405715 1 
2751 1 -13.2595 43.1524 -13.5524 9.85631e-05 1 
2752 1 -13.384 42.768 -10.7122 0.000376499 1 
2753 1 -14.965 41.1328 -12.4507 0.000343777 1 
2754 1 -15.0938 40.7517 -9.6106 0.00388881 1 
2755 1 -12.7277 40.0102 -11.0618 0.000406521 1 
2756 1 -12.8619 39.628 -8.2159 0.00405837 1 
2757 1 -14.4318 37.9929 -9.96417 0.00144699 1 
2758 1 -14.5669 37.6162 -7.11678 0.0313126 1 
2759 1 -12.2005 36.8735 -8.56086 0.00999212 1 
2760 1 -12.3584 36.5074 -5.67715 0.126371 1 
2761 1 -13.9039 34.8589 -7.50835 0.0173006 1 
2762 1 -14.0376 34.5076 -4.71377 0.371344 1 
2763 1 -11.6771 33.7503 -6.10985 0.0220731 1 
2764 1 -11.878 33.3852 -3.28732 0.285468 1 
2765 1 -13.3881 31.7106 -5.01892 0.0478641 1 
2766 1 -13.5716 31.2446 -2.11653 6.08748 5 
2767 1 -11.158 30.6064 -3.70195 0.131838 1 
2768 1 -11.2489 30.3603 -0.79398 7.7288 5 
2769 1 -12.7999 28.5611 -2.68859 5.49205 5 
2770 1 -10.675 27.4946 -1.06896 8.19497 5 
2771 1 -11.8198 25.0381 -0.553626 8.54147 5 
2795 1 -12.6032 40.394 -13.9048 8.9785e-05 1 
2797 1 -14.3066 38.3742 -12.8076 0.00017776 1 
2798 1 -11.947 37.635 -14.2626 0.000137767 1 
2799 1 -12.0705 37.2524 -11.4174 0.00090827 1 
2800 1 -13.6498 35.6145 -13.1716 0.000126634 1 
2801 1 -13.774 35.2344 -10.3348 0.00128246 1 
2802 1 -11.4142 34.492 -11.7891 0.000156054 1 
2803 1 -11.5425 34.1138 -8.95021 0.0014955 1 
2804 1 -13.1186 32.47 -10.7013 0.000259899 1 
2805 1 -13.25 32.0913 -7.86187 0.00250908 1 
2806 1 -10.8842 31.3488 -9.32948 0.000497391 1 
2807 1 -11.0169 30.9747 -6.50858 0.00610935 1 
2808 1 -12.5875 29.3228 -8.2472 0.00135727 1 
2809 1 -12.7124 28.9396 -5.43751 0.0290943 1 
2810 1 -10.3448 28.2 -6.87393 0.00346594 1 
2811 1 -10.4561 27.8137 -4.03254 0.0868969 1 
2812 1 -12.0471 26.1823 -5.82732 0.0561888 1 
2813 1 -12.134 25.8295 -3.07152 2.3478 5 
2814 1 -9.7902 25.037 -4.39348 1.08833 5 
2815 1 -9.10102 24.6508 -0.914071 12.308 5 
2816 1 -11.3986 23.0587 -3.21761 5.68313 5 
2817 1 -12.1808 22.2547 -0.634189 11.5332 5 
2818 1 -9.2588 21.8454 -1.71061 10.5547 5 
2819 1 -10.8888 19.443 -1.13058 10.5708 5 
2850 1 -11.291 34.8741 -14.6275 4.77146e-05 1 
2852 1 -12.9936 32.8519 -13.5377 5.66355e-05 1 
2853 1 -10.6345 32.111 -14.9945 3.45445e-05 1 
2854 1 -10.7572 31.7285 -12.1606 8.26668e-05 1 
2855 1 -12.3362 30.0873 -13.9066 4.61779e-05 1 
2856 1 -12.4599 29.7047 -11.0752 0.000119603 1 
2857 1 -10.0987 28.9625 -12.5315 8.77815e-05 1 
2858 1 -10.2224 28.5815 -9.70281 0.000293906 1 
2859 1 -11.7982 26.937 -11.4484 0.000320113 1 
2860 1 -11.9187 26.5559 -8.62764 0.00378496 1 
2861 1 -9.56147 25.8095 -10.0721 0.00056107 1 
2862 1 -9.68406 25.4247 -7.23606 0.00724081 1 
2863 1 -11.2496 23.7805 -8.99234 0.0020268 1 
2864 1 -11.3553 23.3967 -6.16838 0.0355536 1 
2865 1 -9.01915 22.6461 -7.59807 0.00514635 1 
2866 1 -9.15581 22.2601 -4.7372 0.0871506 1 
2867 1 -10.6906 20.6106 -6.52767 0.0264536 1 
2868 1 -10.7444 20.1981 -3.71875 0.709899 5 
2869 1 -8.46272 19.4759 -5.10079 0.145731 1 
2870 1 -8.35257 19.1093 -2.08632 8.30552 5 
2871 1 -10.0945 17.4416 -3.77754 5.73811 5 
2872 1 -7.72402 16.4421 -2.54156 8.45003 5 
2873 1 -9.5074 14.6269 -1.76469 13.1199 5 
2913 1 -11.6774 27.3202 -14.275 8.06764e-05 1 
2915 1 -9.43974 26.1932 -12.8996 0.000113724 1 
2916 1 -11.018 24.5499 -14.6389 0.00010121 1 
2917 1 -11.1359 24.1645 -11.8144 0.000309845 1 
2918 1 -8.78035 23.4206 -13.2611 0.000149296 1 
2919 1 -8.89998 23.0335 -10.4344 0.00060643 1 
2920 1 -10.4752 21.3898 -12.1692 0.000391258 1 
2921 1 -10.5874 21.0021 -9.34546 0.0027369 1 
2922 1 -8.23991 20.2573 -10.7829 0.000752318 1 
2923 1 -8.3569 19.8665 -7.9469 0.00548951 1 
2924 1 -9.93031 18.2267 -9.66428 0.00691929 1 
2925 1 -10.0428 17.8359 -6.78927 0.0919815 1 
2926 1 -7.69306 17.1045 -8.28774 0.00474997 1 
2927 1 -7.79552 16.7382 -5.4546 0.121759 1 
2928 1 -9.3839 15.089 -7.18757 0.0170334 1 
2929 1 -9.4562 14.7418 -4.39879 0.491169 1 
2930 1 -7.12677 13.9711 -5.76854 0.0389326 1 
2931 1 -7.12505 13.6138 -2.79016 5.31168 5 
2932 1 -8.81232 12.0068 -4.65701 0.109767 1 
2933 1 -9.01846 11.5803 -1.86683 8.32414 5 
2934 1 -6.59279 10.8765 -3.28423 0.807762 5 
2935 1 -6.8291 10.4245 -0.574645 12.5001 5 
2936 1 203.974 8.80986 -2.18159 8.08644 5 
2937 1 -6.24742 7.52814 -0.733857 12.2835 5 
2983 1 -10.3587 21.7781 -14.995 9.9679e-05 1 
2985 1 -8.12108 20.6474 -13.6127 0.000143475 1 
2987 1 -9.81593 18.617 -12.5094 0.000469209 1 
2988 1 -7.46141 17.8777 -13.9579 6.48693e-05 1 
2989 1 -7.57875 17.4888 -11.1239 0.000391073 1 
2990 1 -9.15617 15.8499 -12.8548 6.75362e-05 1 
2991 1 -9.26986 15.4638 -10.0182 0.000583927 1 
2992 1 -6.91556 14.7234 -11.4624 0.000269665 1 
2993 1 -7.02547 14.341 -8.61769 0.00180062 1 
2994 1 -8.60812 12.7021 -10.3585 0.000310279 1 
2995 1 -8.7182 12.331 -7.5159 0.00501948 1 
2996 1 -6.36422 11.5821 -8.963 0.00136353 1 
2997 1 -6.47711 11.213 -6.12415 0.0171223 1 
2998 1 -8.05149 9.56371 -7.86666 0.00227219 1 
2999 1 -8.15605 9.21766 -5.02136 0.0560264 1 
3000 1 -5.81046 8.44727 -6.45657 0.0103034 1 
3001 1 -5.97071 8.09042 -3.60342 0.111385 1 
3002 1 204.897 6.41459 -5.38675 0.0367429 1 
3003 1 204.794 6.01279 -2.5579 1.38012 5 
3004 1 207.122 5.29458 -4.05379 0.122062 1 
3005 1 207.045 4.83576 -1.27431 9.80102 5 
3006 1 205.447 3.20931 -2.83478 1.38619 5 
3007 1 207.801 2.14559 -1.62576 7.1532 5 
3063 1 -6.8014 15.1111 -14.3013 5.94618e-05 1 