ITEM: TIMESTEP
0
ITEM: NUMBER OF ATOMS
5497
ITEM: BOX BOUNDS xy xz yz pp pp ss
-12.046533133 55.825397446 -12.046533133
0 55.108674811 0
-112.0432668069073 118.0969371819413 0
ITEM: ATOMS id type x y z c_csym c_cna 
516 1 6.49309 0.0364155 -12.1233 9.56228e-05 1 
517 1 -4.67493 55.0291 -8.16217 0.000895003 1 
518 1 -3.8142 54.901 -4.16403 0.119746 1 
578 1 -4.67355 53.7021 -14.4398 4.41107e-05 1 
580 1 -2.76674 55.0147 -12.7531 0.000120408 1 
581 1 -2.91407 52.1525 -12.8026 0.000110535 1 
582 1 -3.79611 53.5944 -10.4847 0.000269059 1 
583 1 -1.00773 53.467 -11.121 0.00054042 1 
584 1 -1.89245 54.9093 -8.79895 0.00226078 1 
585 1 -2.04024 52.0452 -8.85383 0.00383362 1 
586 1 -2.92719 53.4795 -6.52092 0.0226325 1 
587 1 -1.00854 54.8185 -4.87662 0.062581 1 
588 1 -1.12767 51.9488 -4.97439 0.0701249 1 
589 1 -2.00048 53.3971 -2.70003 6.04645 5 
590 1 -0.241021 51.9033 -1.01286 5.31062 5 
687 1 -0.268974 49.1571 -13.4813 9.6942e-05 1 
688 1 -1.15404 50.6025 -11.1713 0.000579893 1 
689 1 -0.26332 50.4969 -7.26127 0.0107476 1 
1036 1 1.81318 0.183943 -6.91306 0.00445551 1 
1037 1 2.66094 0.0465773 -2.97211 6.9709 5 
1090 1 -10.2483 53.9683 -13.1909 6.52874e-05 1 
1091 1 -7.46112 53.8345 -13.8134 4.5528e-05 1 
1092 1 3.70803 0.167879 -11.4985 0.000127892 1 
1093 1 -8.4882 52.4164 -11.5463 0.000121276 1 
1094 1 -9.36435 53.8559 -9.22908 0.000655565 1 
1095 1 -6.58061 53.7244 -9.85388 0.000188366 1 
1096 1 4.58974 0.0489383 -7.52904 0.00166497 1 
1097 1 -7.60779 52.3014 -7.58628 0.00136786 1 
1098 1 -8.48948 53.7185 -5.25626 0.0234074 1 
1099 1 -5.6975 53.5886 -5.88392 0.0107581 1 
1100 1 -6.55083 55.0016 -3.59269 0.241639 1 
1101 1 -6.74442 52.1702 -3.60003 0.20297 1 
1102 1 -7.81914 53.468 -1.38254 8.14345 5 
1103 1 -4.91136 53.5339 -1.7295 4.5005 5 
1202 1 -7.60969 50.9733 -13.86 3.77979e-05 1 
1203 1 -4.82113 50.8405 -14.4869 3.30649e-05 1 
1204 1 -5.7019 52.2839 -12.1725 7.70517e-05 1 
1205 1 -5.85025 49.4219 -12.2206 5.45029e-05 1 
1206 1 -6.72992 50.8639 -9.9056 0.000147529 1 
1207 1 -3.94398 50.7324 -10.5354 0.000237893 1 
1208 1 -4.8244 52.1688 -8.21296 0.000912608 1 
1209 1 -4.97284 49.3092 -8.2667 0.00101986 1 
1210 1 -5.85097 50.7409 -5.93789 0.00987906 1 
1211 1 -3.07676 50.6198 -6.56959 0.0418666 1 
1212 1 -3.96823 52.0421 -4.18402 0.335711 1 
1213 1 -4.11702 49.1696 -4.27313 0.267902 1 
1214 1 -5.1621 50.6134 -1.93406 4.88668 5 
1215 1 -2.07913 50.4385 -2.84158 1.10741 1 
1216 1 -3.01076 51.8225 -0.807199 14.081 5 
1217 1 -3.24845 48.9961 -0.787468 10.6073 5 
1316 1 -4.96871 47.9782 -14.5321 1.95925e-05 1 
1318 1 -3.06107 49.2896 -12.85 7.99918e-05 1 
1319 1 -3.20778 46.4265 -12.8944 5.13564e-05 1 
1320 1 -4.09151 47.8694 -10.5838 0.000190166 1 
1321 1 -1.29998 47.7381 -11.2172 0.000424239 1 
1322 1 -2.18736 49.1813 -8.9037 0.0043943 1 
1323 1 -2.33273 46.3161 -8.95216 0.00208082 1 
1324 1 -3.22512 47.7497 -6.63293 0.026592 1 
1325 1 -0.409552 47.6251 -7.30482 0.013036 1 
1326 1 -1.26701 49.0501 -5.04822 0.131113 1 
1327 1 -1.42775 46.1973 -5.06033 0.0846425 1 
1328 1 -2.25888 47.5934 -2.82828 0.731989 1 
1329 1 -0.380578 49.1218 -0.960713 6.43889 5 
1330 1 -0.565162 46.2453 -0.961098 5.66753 5 
1428 1 -0.414813 46.2935 -13.5239 6.33444e-05 1 
1429 1 -0.560554 43.4313 -13.5633 5.0421e-05 1 
1430 1 -1.44501 44.8744 -11.2586 0.000195951 1 
1431 1 -0.558469 44.7667 -7.3314 0.00725893 1 
1844 1 -11.261 53.8854 -4.61691 0.0986876 1 
1947 1 -10.3975 51.1072 -13.2365 5.42753e-05 1 
1948 1 -11.2738 52.5515 -10.927 0.000254707 1 
1951 1 -9.51727 50.9981 -9.27782 0.000790313 1 
1952 1 -10.3971 52.4357 -6.95028 0.00891727 1 
1953 1 -10.5528 49.5824 -7.00548 0.0102279 1 
1955 1 -8.64238 50.8842 -5.3311 0.0432031 1 
1956 1 -9.62602 52.2347 -2.9694 5.59902 5 
1957 1 -9.71243 49.4191 -3.15098 6.55786 5 
1958 1 -7.9381 50.6346 -1.43549 8.36364 5 
2058 1 -7.75858 48.1116 -13.905 2.45312e-05 1 
2059 1 -8.63837 49.5553 -11.5935 0.000107001 1 
2060 1 -8.78884 46.6929 -11.6382 6.83423e-05 1 
2061 1 -9.66933 48.137 -9.32711 0.000705394 1 
2062 1 -6.87957 48.0013 -9.9557 0.000206016 1 
2063 1 -7.75813 49.4424 -7.64419 0.00215086 1 
2064 1 -7.91001 46.5745 -7.69694 0.00200414 1 
2065 1 -8.79182 48.0101 -5.40884 0.0212221 1 
2066 1 -6.00073 47.8742 -6.00597 0.00869433 1 
2067 1 -6.90226 49.2895 -3.71423 0.0767331 1 
2068 1 -7.05179 46.4112 -3.76094 0.0834078 1 
2069 1 -7.90828 47.8334 -1.47421 1.54143 5 
2070 1 -5.25757 47.7193 -2.02982 2.04584 5 
2169 1 -7.90738 45.25 -13.9479 1.4385e-05 1 
2170 1 -5.11609 45.1163 -14.5751 1.2864e-05 1 
2171 1 -5.99869 46.5592 -12.2659 3.62668e-05 1 
2172 1 -6.1467 43.6974 -12.3077 4.16685e-05 1 
2173 1 -7.03014 45.1372 -10.0001 0.000186924 1 
2174 1 -4.239 45.006 -10.6279 0.000142017 1 
2175 1 -5.12302 46.4439 -8.31836 0.00067942 1 
2176 1 -5.27331 43.5836 -8.3583 0.000856012 1 
2177 1 -6.1569 45.0098 -6.04912 0.00814966 1 
2178 1 -3.3706 44.8916 -6.67889 0.0123582 1 
2179 1 -4.27309 46.3072 -4.342 0.137033 1 
2180 1 -4.43722 43.4775 -4.37601 0.0870697 1 
2181 1 -5.41399 44.8869 -1.9771 6.21731 5 
2182 1 -2.45727 44.7704 -2.83984 0.583958 1 
2183 1 -3.40427 46.1643 -0.698539 7.02388 5 
2184 1 -3.55808 43.3745 -0.646979 5.82449 5 
2283 1 -5.26286 42.2559 -14.6165 1.46427e-05 1 
2285 1 -3.35414 43.5644 -12.9354 4.90021e-05 1 
2286 1 -3.49957 40.7049 -12.9745 4.56028e-05 1 
2287 1 -4.3857 42.1456 -10.666 0.000204419 1 
2288 1 -1.58996 42.0136 -11.2954 0.000115389 1 
2289 1 -2.47698 43.4559 -8.99126 0.000806581 1 
2290 1 -2.62114 40.5987 -9.0259 0.000452144 1 
2291 1 -3.51662 42.045 -6.71854 0.00574543 1 
2292 1 -0.704741 41.9096 -7.35682 0.00422607 1 
2293 1 -1.58771 43.35 -5.08058 0.0540215 1 
2294 1 -1.74009 40.4967 -5.10098 0.0174157 1 
2295 1 -2.6402 41.961 -2.8454 0.254623 1 
2296 1 -0.797893 43.4221 -0.942279 5.0602 5 
2297 1 -1.02694 40.4664 -1.1988 6.57968 5 
2395 1 -0.706112 40.5713 -13.6012 4.10196e-05 1 
2396 1 -0.851359 37.7128 -13.64 3.10489e-05 1 
2397 1 -1.73399 39.1549 -11.3316 0.000102774 1 
2398 1 -0.849114 39.0511 -7.3865 0.00174583 1 
42569 3 0.631291 1.99756 0.0696219 4.48898 5 
3131 1 -9.82154 45.2722 -9.37076 0.000327511 1 
3135 1 -8.94205 45.1309 -5.44804 0.0244484 1 
3136 1 -9.80378 46.54 -3.21131 0.264987 1 
3139 1 -8.10042 45.0538 -1.39306 2.18662 5 
3239 1 -8.0554 42.3901 -13.9894 1.59196e-05 1 
3240 1 -8.93883 43.8314 -11.6798 4.29467e-05 1 
3243 1 -7.17921 42.2775 -10.0379 0.000270469 1 
3244 1 -8.06395 43.71 -7.73231 0.00218238 1 
3245 1 -8.21407 40.8593 -7.75974 0.00123508 1 
3246 1 -9.10076 42.2854 -5.44567 0.0088369 1 
3247 1 -6.31645 42.1642 -6.07482 0.00520361 1 
3248 1 -7.20846 43.5832 -3.74568 0.0566138 1 
3249 1 -7.37483 40.7591 -3.76053 0.072144 1 
3250 1 -8.25113 42.2793 -1.30924 6.41547 5 
3251 1 -5.52479 42.0433 -2.05386 9.72154 5 
3350 1 -8.20191 39.5324 -14.031 2.53319e-05 1 
3351 1 -5.40861 39.3973 -14.6576 1.66262e-05 1 
3352 1 -6.29316 40.8389 -12.3476 4.97938e-05 1 
3353 1 -6.43741 37.9828 -12.3889 5.44017e-05 1 
3354 1 -7.32457 39.4241 -10.0762 0.000207201 1 
3355 1 -4.52967 39.2893 -10.704 0.000201273 1 
3356 1 -5.42189 40.7286 -8.39029 0.00154171 1 
3357 1 -5.56139 37.8779 -8.43081 0.00184025 1 
3358 1 -6.46635 39.3171 -6.09709 0.0183765 1 
3359 1 -3.65498 39.1886 -6.76056 0.00312088 1 
3360 1 -4.56264 40.6483 -4.45269 0.0275432 1 
3361 1 -4.67978 37.789 -4.51106 0.0435186 1 
3362 1 -5.57322 39.2534 -2.21124 7.12815 5 
3363 1 -2.79051 39.0884 -2.86135 0.107892 1 
3364 1 -3.72687 40.6294 -0.559128 8.5861 5 
3365 1 -3.76143 37.8658 -0.490024 6.47003 5 
3464 1 -5.55343 36.5398 -14.7001 1.92143e-05 1 
3466 1 -3.64383 37.8471 -13.0145 3.68578e-05 1 
3467 1 -3.78755 34.9896 -13.0572 3.72059e-05 1 
3468 1 -4.67096 36.4333 -10.7458 0.00018341 1 
3469 1 -1.87721 36.2964 -11.3706 0.000109176 1 
3470 1 -2.76117 37.7399 -9.06365 0.000536432 1 
3471 1 -2.9007 34.8791 -9.10414 0.000682619 1 
3472 1 -3.7839 36.3253 -6.80328 0.00572604 1 
3473 1 -0.992491 36.1835 -7.41641 0.00200803 1 
3474 1 -1.87852 37.6289 -5.12774 0.00686369 1 
3475 1 -2.01601 34.7541 -5.13136 0.031651 1 
3476 1 -2.9146 36.2312 -2.84916 0.152714 1 
3477 1 -1.09875 37.5222 -1.20461 6.64072 5 
3575 1 -0.996663 34.8546 -13.6811 2.74215e-05 1 
3576 1 -1.14263 31.996 -13.7244 3.34524e-05 1 
3577 1 -2.02122 33.4375 -11.4125 0.00010484 1 
3578 1 -0.258081 31.885 -9.76289 0.000177663 1 
3579 1 -1.13711 33.3205 -7.44626 0.0031776 1 
3580 1 -0.227139 33.2104 -3.51137 0.114847 1 
4554 1 -8.41545 39.4589 -1.38661 5.53194 5 
4658 1 -7.46559 36.5717 -10.1215 0.000270482 1 
4662 1 -6.59212 36.4741 -6.15503 0.0194417 1 
4663 1 -7.5023 37.8993 -3.76212 0.256796 1 
4664 1 -7.63601 35.0568 -3.90893 0.0848671 1 
4666 1 -5.64437 36.323 -2.34086 0.784556 1 
4667 1 -6.63393 37.7017 -0.289403 13.8348 5 
4668 1 -6.75114 34.8362 -0.196019 8.7097 5 
4768 1 -5.69793 33.6819 -14.7444 2.26863e-05 1 
4769 1 -6.58024 35.1264 -12.4336 6.91146e-05 1 
4770 1 -6.72324 32.2678 -12.4801 5.6811e-05 1 
4772 1 -4.81191 33.5753 -10.7915 0.000164004 1 
4773 1 -5.69619 35.023 -8.48018 0.00126076 1 
4774 1 -5.83333 32.162 -8.53273 0.000788214 1 
4775 1 -6.72102 33.6143 -6.22993 0.00541332 1 
4776 1 -3.91692 33.4601 -6.84356 0.00751243 1 
4777 1 -4.78709 34.9034 -4.5693 0.0878424 1 
4778 1 -4.93938 32.0506 -4.59658 0.0642527 1 
4779 1 -5.85224 33.5003 -2.38323 0.726125 1 
4780 1 -3.06123 33.3508 -2.77539 0.682716 1 
4879 1 -5.84283 30.823 -14.7898 2.44278e-05 1 
4881 1 -3.93177 32.1309 -13.1017 4.89878e-05 1 
4882 1 -4.07739 29.2714 -13.147 6.27574e-05 1 
4883 1 -4.95466 30.715 -10.8377 0.000227242 1 
4884 1 -2.16701 30.578 -11.4558 0.000123165 1 
4885 1 -3.04303 32.0188 -9.14577 0.000573333 1 
4886 1 -3.1891 29.1577 -9.18675 0.000547847 1 
4887 1 -4.06043 30.6009 -6.88163 0.00412514 1 
4888 1 -1.28272 30.4638 -7.48734 0.00247103 1 
4889 1 -2.16739 31.896 -5.14649 0.0512955 1 
4890 1 -2.30408 29.0421 -5.21228 0.0277513 1 
4891 1 -3.24007 30.4887 -2.82356 5.62688 5 
4892 1 -0.35538 30.3115 -3.56705 0.212577 1 
4893 1 -1.19256 31.6889 -1.37409 1.96613 5 
4894 1 -1.45111 28.7893 -1.39464 6.42175 5 
4993 1 -1.28957 29.1368 -13.7691 3.93569e-05 1 
4994 1 -1.43737 26.277 -13.8145 4.01113e-05 1 
4995 1 -2.31494 27.7185 -11.5004 0.000120934 1 
4996 1 -0.407153 29.0251 -9.8062 0.000276748 1 
4997 1 -0.556551 26.1659 -9.8544 0.00018475 1 
4998 1 -1.43281 27.5988 -7.53014 0.00167918 1 
4999 1 -0.526769 27.4428 -3.59213 0.239794 1 
5408 1 23.2397 53.7014 -14.4372 4.17132e-05 1 
5409 1 34.4062 0.0355167 -12.1209 9.34964e-05 1 
5410 1 25.1462 55.0138 -12.7504 0.000119851 1 
5411 1 24.1171 53.5931 -10.4814 0.000269663 1 
5412 1 23.2382 55.0275 -8.15937 0.000906663 1 
5414 1 24.9859 53.4771 -6.51672 0.0234699 1 
5415 1 24.0991 54.8988 -4.16145 0.120164 1 
5417 1 25.9133 53.3945 -2.6975 6.04552 5 
5510 1 24.9992 52.1515 -12.7989 0.000106841 1 
5513 1 26.7592 50.601 -11.166 0.000587172 1 
5514 1 25.8731 52.0434 -8.84922 0.00393456 1 
6314 1 -6.03694 30.6721 -2.37605 3.31096 5 
6415 1 -5.98881 27.9631 -14.8352 2.7196e-05 1 
6419 1 -5.1007 27.8549 -10.8827 0.000287022 1 
6420 1 -5.97466 29.2999 -8.5783 0.00161756 1 
6423 1 -4.20963 27.7356 -6.9144 0.0044224 1 
6424 1 -5.07182 29.1992 -4.62305 0.0602236 1 
6425 1 -5.23706 26.3301 -4.61785 0.0990683 1 
6426 1 -6.05654 27.9151 -2.29562 6.33934 5 
6427 1 -3.36102 27.5984 -2.97256 6.96886 5 
6528 1 -4.22483 26.4114 -13.1921 6.47266e-05 1 
6529 1 -4.37376 23.5509 -13.2367 5.33362e-05 1 
6530 1 -5.25014 24.9951 -10.9276 0.000259094 1 
6531 1 -2.46429 24.8591 -11.5466 0.000113311 1 
6532 1 -3.34054 26.2985 -9.22998 0.000636469 1 
6533 1 -3.49316 23.4415 -9.27753 0.000767714 1 
6534 1 -4.37322 24.8793 -6.95076 0.00885867 1 
6535 1 -1.58343 24.7437 -7.58583 0.00142953 1 
6536 1 -2.46527 26.1612 -5.25662 0.0232715 1 
6537 1 -2.61799 23.3275 -5.33082 0.0441632 1 
6538 1 -3.60221 24.6789 -2.97054 5.60639 5 
6539 1 -0.720273 24.6118 -3.59829 0.206956 1 
6540 1 -1.79565 25.9101 -1.3814 8.09425 5 
6541 1 -1.92054 23.0745 -1.4362 8.42173 5 
6640 1 -1.58575 23.4165 -13.8597 3.20782e-05 1 
6641 1 -1.73448 20.5553 -13.9035 1.92053e-05 1 
6642 1 -2.61419 21.9988 -11.5925 9.72899e-05 1 
6643 1 -0.705498 23.3063 -9.90438 0.000151117 1 
6644 1 -0.854832 20.4447 -9.95309 0.0002203 1 
6645 1 -1.73327 21.8853 -7.64257 0.00234075 1 
6646 1 -0.877436 21.733 -3.71148 0.0810921 1 
7046 1 17.6651 53.9678 -13.1894 6.23809e-05 1 
7047 1 31.6212 0.167016 -11.4967 0.000124771 1 
7048 1 18.5488 53.8547 -9.2272 0.000642198 1 
7049 1 29.7258 0.182641 -6.91168 0.00443571 1 
7050 1 32.5028 0.0475347 -7.52697 0.00167125 1 
7051 1 19.4233 53.7168 -5.25471 0.0232946 1 
7052 1 30.5735 0.044895 -2.97104 6.97502 5 
7053 1 21.362 54.9992 -3.59097 0.241296 1 
7054 1 20.0932 53.4645 -1.38101 8.09944 5 
7139 1 20.4523 53.8339 -13.8113 4.30806e-05 1 
7140 1 20.3042 50.9728 -13.8576 3.39753e-05 1 
7141 1 19.4254 52.4155 -11.544 0.000114047 1 
7142 1 22.2117 52.283 -12.1695 7.08944e-05 1 
7143 1 21.3327 53.7232 -9.85125 0.000185318 1 
7144 1 21.184 50.8627 -9.90226 0.000144622 1 
7145 1 20.3056 52.2999 -7.58371 0.00142358 1 
7146 1 23.0892 52.1671 -8.20911 0.000930182 1 
7147 1 22.2159 53.5864 -5.88082 0.0111277 1 
7148 1 22.0629 50.7387 -5.9339 0.0102168 1 
7149 1 21.1685 52.1672 -3.59747 0.206676 1 
7150 1 23.9447 52.0382 -4.17784 0.347075 1 
7151 1 23.002 53.5305 -1.72762 4.50364 5 
7152 1 22.7464 50.6108 -1.92223 5.00315 5 
7153 1 24.9035 51.8182 -0.806478 14.0647 5 
7252 1 23.0925 50.8398 -14.4836 2.94735e-05 1 
7253 1 22.9453 47.9778 -14.5283 1.64269e-05 1 
7254 1 22.0638 49.4211 -12.2169 4.76141e-05 1 
7255 1 24.8526 49.2886 -12.8453 7.33258e-05 1 
7256 1 23.9698 50.731 -10.5309 0.000227932 1 
7257 1 23.8228 47.8683 -10.578 0.000170726 1 
7258 1 22.9415 49.3074 -8.26144 0.000992788 1 
7259 1 25.7267 49.1792 -8.89669 0.00447619 1 
7260 1 24.8371 50.6173 -6.56409 0.0427766 1 
7261 1 24.6896 47.7466 -6.62382 0.0277024 1 
7262 1 23.7965 49.1668 -4.26659 0.275124 1 
7263 1 26.648 49.0471 -5.04164 0.136563 1 
7264 1 25.8354 50.4333 -2.83744 1.12992 1 
7265 1 25.6549 47.5883 -2.82221 0.725867 1 
7266 1 24.666 48.9888 -0.782751 10.5992 5 
7367 1 24.7062 46.426 -12.8886 4.50593e-05 1 
7368 1 27.4982 46.2929 -13.5171 6.27426e-05 1 
7369 1 26.6136 47.7369 -11.2101 0.000411066 1 
7370 1 26.4687 44.8742 -11.2497 0.000194965 1 
7371 1 25.5818 46.3149 -8.94283 0.00207451 1 
7374 1 27.3558 44.7662 -7.31549 0.00850627 1 
7375 1 26.489 46.1933 -5.04597 0.09096 1 
7379 1 27.3469 46.2359 -0.958243 5.83747 5 
7479 1 27.3526 43.4317 -13.5554 5.647e-05 1 
7483 1 28.2354 43.325 -9.60725 0.000812147 1 
8277 1 -4.52883 22.0265 -7.00518 0.0103276 1 
8281 1 -3.69022 21.8625 -3.15385 6.53464 5 
8384 1 -2.76448 19.137 -11.6363 5.86197e-05 1 
8385 1 -3.64501 20.5809 -9.32597 0.000696689 1 
8386 1 -3.79711 17.7166 -9.36901 0.000314578 1 
8388 1 -1.88481 19.0182 -7.69434 0.00223882 1 
8389 1 -2.76705 20.4538 -5.40834 0.0222869 1 
8390 1 -2.91807 17.5754 -5.44727 0.0247998 1 
8391 1 -3.78162 18.9842 -3.21265 0.266056 1 
8392 1 -1.0268 18.8543 -3.75922 0.0864517 1 
8393 1 -1.88492 20.2728 -1.47655 1.56264 5 
8394 1 -2.08026 17.4952 -1.39509 2.11603 5 
8493 1 -1.88319 17.6945 -13.9455 1.10149e-05 1 
8494 1 -2.03116 14.8352 -13.9864 1.65044e-05 1 
8495 1 -2.91436 16.2761 -11.6772 3.99137e-05 1 
8496 1 -1.0052 17.5814 -9.99632 0.000209695 1 
8497 1 -1.15413 14.7227 -10.0331 0.000289502 1 
8498 1 -2.03865 16.1546 -7.72878 0.00227903 1 
8499 1 -0.289405 14.609 -6.06734 0.00472399 1 
8500 1 -1.18539 16.0285 -3.74427 0.0577907 1 
8595 1 -0.268573 13.2847 -12.3427 5.72967e-05 1 
8875 1 12.0845 54.2408 -11.9519 0.000101774 1 
8876 1 12.9722 54.1376 -8.00013 0.00163977 1 
8877 1 13.9153 54.0221 -4.10903 0.324071 1 
8937 1 12.9636 52.794 -14.2574 4.26557e-05 1 
8938 1 15.7542 52.6584 -14.8782 2.69605e-05 1 
8939 1 14.876 54.1036 -12.57 5.07642e-05 1 
8940 1 14.7275 51.2426 -12.6149 5.77652e-05 1 
8941 1 13.8503 52.6896 -10.3085 0.000116322 1 
8942 1 16.6396 52.5508 -10.9255 0.000243289 1 
8943 1 15.7668 53.9945 -8.61901 0.00220346 1 
8944 1 15.6134 51.1349 -8.66355 0.00169738 1 
8945 1 14.7496 52.5807 -6.36526 0.0234733 1 
8946 1 17.5155 52.4343 -6.94874 0.00892774 1 
8947 1 16.6511 53.8841 -4.61603 0.0986186 1 
8948 1 16.4534 51.0141 -4.65028 0.178494 1 
8949 1 15.6522 52.5971 -2.26157 5.59741 5 
8950 1 18.2861 52.2334 -2.96946 5.60755 5 
9028 1 15.6058 49.7969 -14.922 2.19427e-05 1 
9030 1 17.5164 51.1068 -13.235 4.97542e-05 1 
9031 1 17.3669 48.2452 -13.2788 3.20044e-05 1 
9032 1 16.4887 49.6898 -10.9707 0.00016565 1 
9033 1 19.2757 49.5547 -11.5909 9.92732e-05 1 
9034 1 18.3962 50.997 -9.27557 0.000779506 1 
9035 1 18.2447 48.1362 -9.32472 0.000715586 1 
9036 1 17.3599 49.5811 -7.00348 0.0104696 1 
9037 1 20.156 49.4409 -7.64108 0.0023188 1 
9038 1 19.2707 50.8825 -5.32944 0.043996 1 
9039 1 19.1219 48.0085 -5.40727 0.0224806 1 
9040 1 18.1983 49.4169 -3.15276 6.54289 5 
9041 1 21.0114 49.2879 -3.71067 0.0810106 1 
9042 1 19.9685 50.6292 -1.43559 8.41631 5 
9043 1 20.0043 47.8276 -1.47541 1.55755 5 
9135 1 20.1558 48.1112 -13.9023 2.098e-05 1 
9136 1 20.0076 45.25 -13.9451 1.21838e-05 1 
9137 1 19.1259 46.6925 -11.6355 6.22614e-05 1 
9138 1 21.9159 46.5588 -12.2616 3.24607e-05 1 
9139 1 21.035 48.0004 -9.95172 0.000213616 1 
9140 1 20.8851 45.1367 -9.9956 0.000207554 1 
9141 1 20.0049 46.5733 -7.69338 0.00223579 1 
9142 1 22.7921 46.4427 -8.31173 0.000708952 1 
9143 1 21.9145 47.8718 -6.00025 0.00912143 1 
9144 1 21.7597 45.0083 -6.04222 0.00880074 1 
9145 1 20.8625 46.4091 -3.75826 0.0864854 1 
9146 1 23.6455 46.3004 -4.32986 0.146409 1 
9147 1 22.6564 47.7173 -2.02639 2.06578 5 
9148 1 22.4954 44.888 -1.9652 6.09376 5 
9149 1 24.5143 46.1602 -0.691747 7.19257 5 
9247 1 22.7983 45.1163 -14.5709 1.18866e-05 1 
9248 1 22.652 42.2564 -14.612 1.60733e-05 1 
9249 1 21.7684 43.6975 -12.3029 4.5436e-05 1 
9250 1 24.5602 43.5647 -12.9288 4.91238e-05 1 
9251 1 23.6758 45.0056 -10.6209 0.000136576 1 
9252 1 23.5296 42.1463 -10.6581 0.000201606 1 
9253 1 22.6425 43.5832 -8.35028 0.000852303 1 
9254 1 25.4376 43.4562 -8.97974 0.000754768 1 
9255 1 24.5449 44.8904 -6.66792 0.0122494 1 
9256 1 24.3998 42.0461 -6.70348 0.00506302 1 
9257 1 23.4825 43.4778 -4.3603 0.0910752 1 
9258 1 26.3262 43.3531 -5.0594 0.0578901 1 
9259 1 25.4804 44.7597 -2.81159 0.594414 1 
9260 1 25.2805 41.9546 -2.82164 0.300972 1 
9261 1 24.3601 43.3728 -0.662252 5.72577 5 
9262 1 27.1812 43.353 -0.900152 7.30257 5 
9362 1 24.4151 40.7061 -12.9675 4.72667e-05 1 
9363 1 27.2072 40.5729 -13.5926 4.76594e-05 1 
9364 1 26.3239 42.0149 -11.285 0.000126366 1 
9365 1 26.1802 39.1579 -11.3208 0.000104294 1 
9366 1 25.294 40.6014 -9.01275 0.000392446 1 
9367 1 28.0901 40.469 -9.6362 0.000445897 1 
9368 1 27.2078 41.913 -7.33657 0.00481046 1 
9369 1 27.0647 39.0586 -7.3646 0.00223348 1 
9370 1 26.1767 40.5009 -5.07277 0.0261541 1 
9371 1 28.9677 40.3972 -5.6597 0.00962791 1 
9372 1 28.0496 41.8806 -3.35552 0.0883993 1 
9373 1 27.9255 39.0063 -3.36411 0.167814 1 
9374 1 26.9172 40.5746 -1.05261 9.31845 5 
9474 1 27.0621 37.7156 -13.6315 3.55511e-05 1 
9476 1 28.9713 39.0253 -11.9438 0.000101468 1 
9477 1 28.8259 36.1682 -11.9825 7.55758e-05 1 
9478 1 27.9466 37.6115 -9.6697 0.000318259 1 
9481 1 29.7122 36.0697 -8.01632 0.00146611 1 
9482 1 28.8306 37.5371 -5.70529 0.0110222 1 
42568 3 1.56323 4.60311 -0.458384 6.8908 5 
9586 1 29.705 34.7257 -14.2982 3.05471e-05 1 
10384 1 -2.18868 13.3047 -7.75563 0.00119574 1 
10385 1 -3.07747 14.7304 -5.44474 0.00892022 1 
10388 1 -1.35357 13.2038 -3.75982 0.0743506 1 
10389 1 -2.23276 14.722 -1.31117 6.36342 5 
10390 1 -2.39845 11.9037 -1.38747 5.5384 5 
10489 1 -2.17767 11.9783 -14.0277 2.93201e-05 1 
10492 1 -0.412809 10.4297 -12.3841 6.45727e-05 1 
10493 1 -1.29939 11.8704 -10.0712 0.000222812 1 
10494 1 -1.4406 9.01895 -10.117 0.000303562 1 
10496 1 -0.43906 11.7633 -6.08958 0.0174925 1 
10497 1 -0.565726 8.9225 -6.14911 0.0194668 1 
10498 1 -1.48125 10.3433 -3.76067 0.258065 1 
10499 1 -0.624435 10.1439 -0.291702 13.7991 5 
10596 1 -0.555805 7.57408 -12.4294 8.29985e-05 1 
10790 1 5.61036 54.6166 -14.6472 4.57677e-05 1 
10791 1 6.49319 54.5168 -10.7095 0.000160782 1 
10792 1 7.37829 54.4223 -6.78218 0.00453554 1 
10793 1 8.30668 54.3331 -2.78433 0.211983 1 
10832 1 7.37701 53.0665 -13.0141 6.05561e-05 1 
10833 1 10.1713 52.9302 -13.6367 6.50982e-05 1 
10834 1 9.29006 54.3789 -11.3332 0.000186697 1 
10835 1 9.14465 51.516 -11.3791 0.000190383 1 
10836 1 8.26422 52.9685 -9.08134 0.000820519 1 
10837 1 11.0592 52.8289 -9.69461 0.000335486 1 
10838 1 10.1794 54.2782 -7.39095 0.00259333 1 
10839 1 10.0318 51.4214 -7.4431 0.00199773 1 
10840 1 9.13942 52.8728 -5.14591 0.0236299 1 
10841 1 11.9435 52.7286 -5.74069 0.0254664 1 
10842 1 10.9739 54.1568 -3.43614 0.475139 1 
10843 1 10.8583 51.3457 -3.47223 0.199186 1 
10844 1 9.96015 52.8916 -0.912376 3.61936 5 
10845 1 12.8216 52.5991 -1.99221 2.79066 5 
10897 1 10.0241 50.067 -13.6797 6.33268e-05 1 
10898 1 12.8155 49.9319 -14.3006 3.67425e-05 1 
10899 1 11.9372 51.3792 -11.9968 0.000105562 1 
10900 1 11.7875 48.5157 -12.0372 9.15729e-05 1 
10901 1 10.9098 49.966 -9.73817 0.000336657 1 
10902 1 13.6999 49.828 -10.3531 0.000178204 1 
10903 1 12.8233 51.2792 -8.04885 0.000956436 1 
10904 1 12.6694 48.419 -8.09192 0.00124502 1 
10905 1 11.7865 49.8837 -5.78639 0.0124096 1 
10906 1 14.5842 49.7203 -6.40803 0.0154817 1 
10907 1 13.7345 51.1632 -4.13213 0.271234 1 
10908 1 13.5714 48.3388 -4.14353 0.136179 1 
10909 1 12.6272 49.7878 -1.95227 1.5908 5 
10910 1 15.464 49.7172 -2.20985 4.96513 5 
10974 1 12.6663 47.0697 -14.341 3.17383e-05 1 
10975 1 15.4567 46.9355 -14.9639 1.65782e-05 1 
10976 1 14.5776 48.3804 -12.6574 5.13228e-05 1 
10977 1 14.427 45.5184 -12.6968 4.58969e-05 1 
10978 1 13.5481 46.9647 -10.3926 0.000184275 1 
10979 1 16.3371 46.8273 -11.013 9.52025e-05 1 
10980 1 15.459 48.2736 -8.7084 0.000867112 1 
10981 1 15.3057 45.4076 -8.74655 0.000569556 1 
10982 1 14.4261 46.8585 -6.45037 0.00764572 1 
10983 1 17.2076 46.7168 -7.06049 0.00605235 1 
10984 1 16.2993 48.1528 -4.73224 0.140896 1 
10985 1 16.1751 45.2916 -4.80042 0.0346017 1 
10986 1 15.2348 46.7912 -2.41824 5.77455 5 
10987 1 18.1072 46.5383 -3.21207 0.269163 1 
10988 1 17.3203 47.9514 -1.01128 8.23949 5 
10989 1 17.0056 45.1306 -0.987141 6.06962 5 
11067 1 17.2172 45.3839 -13.3204 2.2279e-05 1 
11068 1 17.0681 42.5244 -13.361 2.55418e-05 1 
11069 1 16.1857 43.9654 -11.0516 0.000105866 1 
11070 1 18.9767 43.8313 -11.6772 4.07402e-05 1 
11071 1 18.0933 45.2717 -9.36859 0.000332712 1 
11072 1 17.9436 42.4117 -9.40711 0.000278222 1 
11073 1 17.0573 43.8458 -7.09929 0.00228199 1 
11074 1 19.8517 43.7095 -7.72839 0.00227797 1 
11075 1 18.9716 45.13 -5.44664 0.0249322 1 
11076 1 18.813 42.2848 -5.44467 0.00887328 1 
11077 1 17.9605 43.7039 -3.15479 0.218506 1 
11078 1 20.7045 43.5831 -3.74368 0.0577836 1 
11079 1 19.8087 45.0497 -1.39449 2.11244 5 
11080 1 19.6573 42.2762 -1.31083 6.3628 5 
11170 1 19.8601 42.3903 -13.9867 1.54754e-05 1 
11171 1 19.7139 39.5329 -14.0284 2.6427e-05 1 
11172 1 18.8292 40.9739 -11.7175 7.34122e-05 1 
11173 1 21.6225 40.8396 -12.3427 5.63372e-05 1 
11174 1 20.7367 42.2776 -10.033 0.000287697 1 
11175 1 20.5919 39.4249 -10.0715 0.000218419 1 
11176 1 19.7024 40.8592 -7.75583 0.00118015 1 
11177 1 22.4948 40.7297 -8.38159 0.00137531 1 
11178 1 21.601 42.1638 -6.06693 0.00470528 1 
11179 1 21.4518 39.3177 -6.08954 0.0175031 1 
11180 1 20.5369 40.7581 -3.75967 0.0743119 1 
11181 1 23.3587 40.6482 -4.43765 0.0244063 1 
11182 1 22.3809 42.0436 -2.05307 9.9474 5 
11183 1 22.3347 39.2479 -2.21267 7.19076 5 
11184 1 24.1576 40.6157 -0.559289 8.10222 5 
11282 1 22.5065 39.3984 -14.6532 1.93823e-05 1 
11283 1 22.3617 36.5413 -14.696 2.28932e-05 1 
11284 1 21.4785 37.9841 -12.3844 6.24978e-05 1 
11285 1 24.2711 37.8493 -13.0077 3.80492e-05 1 
11286 1 23.3861 39.2912 -10.6959 0.000177984 1 
11287 1 23.2451 36.4363 -10.7386 0.000165263 1 
11288 1 22.3558 37.8805 -8.42277 0.0016357 1 
11289 1 25.1547 37.7449 -9.05095 0.000518914 1 
11290 1 24.2631 39.193 -6.74559 0.00292128 1 
11291 1 24.1346 36.3328 -6.79042 0.00600975 1 
11292 1 23.2446 37.7966 -4.49628 0.0491595 1 
11293 1 26.0406 37.6472 -5.09712 0.00870393 1 
11294 1 25.1493 39.1174 -2.8059 0.100283 1 
11295 1 24.9971 36.2403 -2.83881 0.149349 1 
11296 1 24.1337 37.852 -0.486079 6.4212 5 
11396 1 24.1275 34.9924 -13.0512 4.27392e-05 1 
11397 1 26.917 34.8582 -13.6738 3.44747e-05 1 
11398 1 26.0374 36.3008 -11.3608 0.000114755 1 
11399 1 25.8934 33.4423 -11.4049 0.000119545 1 
11400 1 25.0153 34.8853 -9.0941 0.000698052 1 
11401 1 27.8023 34.7519 -9.70945 0.000295269 1 
11402 1 26.923 36.1955 -7.39753 0.00210866 1 
11403 1 26.7774 33.3289 -7.43663 0.00301656 1 
11404 1 25.8991 34.7641 -5.1203 0.0308647 1 
11405 1 28.6907 34.6494 -5.76092 0.00703691 1 
11406 1 27.8212 36.1077 -3.48224 0.0508504 1 
11407 1 27.6861 33.2194 -3.50275 0.112691 1 
11408 1 29.6165 34.5356 -1.78122 0.221 1 
11507 1 26.7712 31.9996 -13.7187 4.1816e-05 1 
11508 1 29.5582 31.8674 -14.3433 3.98361e-05 1 
11509 1 28.6797 33.3101 -12.0263 7.19892e-05 1 
11510 1 28.5321 30.4503 -12.073 8.94945e-05 1 
11511 1 27.6556 31.8913 -9.75525 0.000189038 1 
11512 1 30.4398 31.7624 -10.3807 0.000164661 1 
11513 1 29.5659 33.2024 -8.06227 0.000951125 1 
11514 1 29.4153 30.3388 -8.10985 0.00102537 1 
11515 1 28.542 31.7752 -5.80022 0.0127197 1 
11517 1 30.4241 33.0792 -4.08713 0.0454448 1 
11518 1 30.2746 30.1951 -4.12076 0.0442264 1 
11519 1 29.451 31.6371 -1.70481 0.565364 1 
11619 1 29.4109 29.0077 -14.3902 4.56045e-05 1 
11622 1 31.17 27.4593 -12.7506 0.00012201 1 
11623 1 30.29 28.901 -10.4308 0.000239883 1 
11627 1 31.162 28.7857 -6.46236 0.00920575 1 
12423 1 -1.61464 7.50101 -3.9088 0.083466 1 
12426 1 -0.733832 7.28024 -0.195713 8.69394 5 
12528 1 -0.699171 4.71571 -12.4769 6.78701e-05 1 
12532 1 -0.697119 6.06178 -6.22731 0.00529119 1 
12676 1 0.0229862 54.8842 -13.3856 0.000143704 1 
12677 1 0.902469 54.7854 -9.44613 0.000738921 1 
12678 1 1.80295 54.674 -5.53294 0.022199 1 
12679 1 2.68862 54.6435 -1.37468 5.30234 5 
12693 1 2.81603 54.7515 -14.0181 8.15886e-05 1 
12694 1 2.67093 51.8879 -14.0665 5.96928e-05 1 
12695 1 1.78675 53.3365 -11.7587 0.000191152 1 
12696 1 4.58206 53.2021 -12.3889 9.21741e-05 1 
12697 1 3.698 54.6519 -10.0823 0.000348285 1 
12698 1 3.55478 51.7861 -10.1344 0.000284814 1 
12699 1 2.67555 53.2349 -7.83286 0.00196483 1 
12700 1 5.46539 53.1054 -8.45656 0.00073463 1 
12701 1 4.58421 54.558 -6.13953 0.00861761 1 
12702 1 4.44117 51.6958 -6.19966 0.00709679 1 
12703 1 3.55077 53.1398 -3.88234 0.112877 1 
12704 1 6.37722 53.0319 -4.54491 0.0541453 1 
12705 1 5.48159 54.4498 -2.27338 7.25737 5 
12706 1 5.3701 51.5779 -2.40921 0.50147 1 
12707 1 4.4769 52.9239 -0.242372 9.89431 5 
12708 1 7.21547 52.9565 -0.566946 2.24664 5 
12734 1 5.46516 51.7533 -14.6938 3.87412e-05 1 
12735 1 5.31909 48.8895 -14.7368 4.21653e-05 1 
12736 1 4.43723 50.3368 -12.4347 8.85875e-05 1 
12737 1 7.23121 50.2022 -13.058 6.65807e-05 1 
12738 1 6.34943 51.6522 -10.7579 0.00011528 1 
12739 1 6.20344 48.7856 -10.7984 0.000165549 1 
12740 1 5.32043 50.2379 -8.50296 0.000545587 1 
12741 1 8.11714 50.1021 -9.12512 0.000714118 1 
12742 1 7.23647 51.5614 -6.8398 0.00527001 1 
12743 1 7.08627 48.6881 -6.87441 0.00409435 1 
12744 1 6.2188 50.1527 -4.61307 0.0464512 1 
12745 1 8.99366 50.0239 -5.1979 0.013295 1 
12746 1 8.12848 51.513 -2.86422 0.115897 1 
12747 1 7.92601 48.6638 -2.95231 0.0858375 1 
12748 1 7.01966 50.1798 -0.581474 4.30234 5 
12788 1 7.08404 47.3379 -13.0969 8.7381e-05 1 
12789 1 9.87554 47.2038 -13.7188 6.48271e-05 1 
12790 1 8.99648 48.6506 -11.4184 0.000194798 1 
12791 1 8.84721 45.7866 -11.4515 0.000198891 1 
12792 1 7.9683 47.2338 -9.15529 0.00081072 1 
12793 1 10.758 47.1002 -9.772 0.000350437 1 
12794 1 9.87972 48.556 -7.48012 0.00169673 1 
12795 1 9.7275 45.6872 -7.49765 0.00389156 1 
12796 1 8.8394 47.1549 -5.21591 0.0159108 1 
12797 1 11.6464 47.0269 -5.8335 0.0092619 1 
12798 1 10.7264 48.5042 -3.54967 0.0407995 1 
12799 1 10.6426 45.6447 -3.61395 0.200206 1 
12800 1 9.5786 47.1048 -1.41276 5.68131 5 
12801 1 12.475 47.0076 -1.91591 4.16495 5 
12853 1 9.72632 44.3426 -13.7555 5.52865e-05 1 
12854 1 12.5166 44.209 -14.3797 2.82394e-05 1 
12855 1 11.6368 45.6528 -12.0732 9.99439e-05 1 
12856 1 11.4861 42.7931 -12.1082 9.45369e-05 1 
12857 1 10.6062 44.2369 -9.79978 0.000573906 1 
12858 1 13.3963 44.1017 -10.4276 0.000255692 1 
12859 1 12.5188 45.5523 -8.12765 0.00185192 1 
12860 1 12.3674 42.687 -8.15421 0.00255565 1 
12861 1 11.504 44.1495 -5.86734 0.0205573 1 
12862 1 14.2766 43.9883 -6.47056 0.00706467 1 
12863 1 13.4125 45.4768 -4.18655 0.0706299 1 
12864 1 13.2464 42.6033 -4.16002 0.116417 1 
12865 1 12.4579 44.249 -1.82907 6.47239 5 
12866 1 15.1217 43.8939 -2.56583 6.61489 5 
12930 1 12.3673 41.3505 -14.4187 2.76504e-05 1 
12932 1 14.2767 42.6587 -12.7351 4.70081e-05 1 
12933 1 14.1276 39.8022 -12.7747 5.02702e-05 1 
12934 1 13.2449 41.2436 -10.4618 0.00021293 1 
12935 1 16.0357 41.1084 -11.0897 0.000145959 1 
12936 1 15.1519 42.5462 -8.77689 0.000982094 1 
12937 1 15.0011 39.6962 -8.81179 0.000909752 1 
12938 1 14.1157 41.1334 -6.4823 0.00893067 1 
12939 1 16.9097 40.995 -7.12985 0.00152114 1 
12940 1 16.025 42.4181 -4.81215 0.0283731 1 
12941 1 15.8788 39.5912 -4.84698 0.028945 1 
12942 1 14.8921 40.9725 -2.51907 5.62657 5 
12943 1 17.7869 40.8944 -3.12956 0.209461 1 
12944 1 16.6783 42.2716 -0.956009 7.97864 5 
12945 1 16.6211 39.4216 -0.989091 8.5875 5 
13023 1 16.9204 39.6676 -13.4023 4.04941e-05 1 
13024 1 16.7745 36.8121 -13.4462 5.56927e-05 1 
13025 1 15.8883 38.2554 -11.1317 0.00019384 1 
13026 1 18.6841 38.1197 -11.7602 0.000115258 1 
13027 1 17.797 39.5601 -9.44601 0.000368202 1 
13028 1 17.6538 36.7104 -9.49479 0.000633603 1 
13029 1 16.7644 38.1532 -7.17518 0.00245468 1 
13030 1 19.5614 38.0155 -7.79896 0.00140884 1 
13031 1 18.6701 39.4466 -5.46691 0.00829997 1 
13032 1 18.5326 36.6092 -5.53856 0.0117996 1 
13033 1 17.6536 38.043 -3.20309 0.141927 1 
13034 1 20.4096 37.8974 -3.76085 0.258019 1 
13035 1 19.4921 39.4576 -1.38739 5.53613 5 
13036 1 19.2444 36.4322 -1.50491 2.9463 5 
13037 1 21.2658 37.6978 -0.291539 13.797 5 